
     Program PWSCF v.7.3.1 starts on 31Mar2026 at 18: 6:57 

     This program is part of the open-source Quantum ESPRESSO suite
     for quantum simulation of materials; please cite
         "P. Giannozzi et al., J. Phys.:Condens. Matter 21 395502 (2009);
         "P. Giannozzi et al., J. Phys.:Condens. Matter 29 465901 (2017);
         "P. Giannozzi et al., J. Chem. Phys. 152 154105 (2020);
          URL http://www.quantum-espresso.org", 
     in publications or presentations arising from this work. More details at
     http://www.quantum-espresso.org/quote

     Parallel version (MPI), running on   128 processors

     MPI processes distributed on     1 nodes
     499906 MiB available memory on the printing compute node when the environment starts

     Waiting for input...
     Reading input from standard input

     Current dimensions of program PWSCF are:
     Max number of different atomic species (ntypx) = 10
     Max number of k-points (npk) =  40000
     Max angular momentum in pseudopotentials (lmaxx) =  4
     Found identity + ( -0.5000 -0.5000  0.5000) symmetry
     This is a supercell, fractional translations are disabled

     K-points division:     npool     =       4
     R & G space division:  proc/nbgrp/npool/nimage =      32
     Subspace diagonalization in iterative solution of the eigenvalue problem:
     a serial algorithm will be used


     Parallelization info
     --------------------
     sticks:   dense  smooth     PW     G-vecs:    dense   smooth      PW
     Min          68      68     18                 3438     3438     498
     Max          69      69     19                 3443     3443     505
     Sum        2185    2185    593               110091   110091   16023

     Using Slab Decomposition



     bravais-lattice index     =            6
     lattice parameter (alat)  =       8.7163  a.u.
     unit-cell volume          =     955.0306 (a.u.)^3
     number of atoms/cell      =           24
     number of atomic types    =            2
     number of electrons       =        64.00
     number of Kohn-Sham states=           32
     kinetic-energy cutoff     =      90.0000  Ry
     charge density cutoff     =     360.0000  Ry
     scf convergence threshold =      1.0E-07
     mixing beta               =       0.7000
     number of iterations used =            8  plain     mixing
     energy convergence thresh.=      1.0E-04
     force convergence thresh. =      1.0E-04
     Exchange-correlation=  SLA  PW   PBE  PBE
                           (   1   4   3   4   0   0   0)
     nstep                     =           50


     celldm(1)=   8.716274  celldm(2)=   0.000000  celldm(3)=   1.442197
     celldm(4)=   0.000000  celldm(5)=   0.000000  celldm(6)=   0.000000

     crystal axes: (cart. coord. in units of alat)
               a(1) = (   1.000000   0.000000   0.000000 )  
               a(2) = (   0.000000   1.000000   0.000000 )  
               a(3) = (   0.000000   0.000000   1.442197 )  

     reciprocal axes: (cart. coord. in units 2 pi/alat)
               b(1) = (  1.000000  0.000000  0.000000 )  
               b(2) = (  0.000000  1.000000  0.000000 )  
               b(3) = (  0.000000  0.000000  0.693386 )  


     PseudoPot. # 1 for H  read from file:
     ./H.pbe-van_ak.UPF
     MD5 check sum: 077eb6d537518a38cb46c6de387227b7
     Pseudo is Ultrasoft, Zval =  1.0
     Generated by new atomic code, or converted to UPF format
     Using radial grid of  615 points,  1 beta functions with: 
                l(1) =   0
     Q(r) pseudized with  8 coefficients,  rinner =    0.800

     PseudoPot. # 2 for O  read from file:
     ./O.pbe-van_ak.UPF
     MD5 check sum: 78c19812648e8988a0fe644b0f25305e
     Pseudo is Ultrasoft, Zval =  6.0
     Generated by new atomic code, or converted to UPF format
     Using radial grid of  737 points,  4 beta functions with: 
                l(1) =   0
                l(2) =   0
                l(3) =   1
                l(4) =   1
     Q(r) pseudized with  8 coefficients,  rinner =    0.800   0.800   0.800


     atomic species   valence    mass     pseudopotential
     H                 1.00     1.00800     H ( 1.00)
     O                 6.00    16.00000     O ( 1.00)

      4 Sym. Ops., with inversion, found



   Cartesian axes

     site n.     atom                  positions (alat units)
         1        O      tau(   1) = (   0.0000000   0.2500000   0.8781106  )
         2        O      tau(   2) = (   0.0000000   0.7500000   0.5640866  )
         3        O      tau(   3) = (   0.5000000   0.7500000   0.1570120  )
         4        O      tau(   4) = (   0.5000000   0.2500000   1.2851851  )
         5        O      tau(   5) = (   0.0000000   0.7500000   1.2386599  )
         6        O      tau(   6) = (   0.0000000   0.2500000   0.2035373  )
         7        O      tau(   7) = (   0.5000000   0.2500000   0.5175613  )
         8        O      tau(   8) = (   0.5000000   0.7500000   0.9246358  )
         9        H      tau(   9) = (   0.0000000   0.4142500   1.0027885  )
        10        H      tau(  10) = (   0.0000000   0.5857500   0.4394086  )
        11        H      tau(  11) = (   0.5000000   0.5857500   0.2816900  )
        12        H      tau(  12) = (   0.5000000   0.4142500   1.1605072  )
        13        H      tau(  13) = (   0.8357500   0.7500000   1.3633378  )
        14        H      tau(  14) = (   0.1642500   0.2500000   0.0788593  )
        15        H      tau(  15) = (   0.6642500   0.2500000   0.6422392  )
        16        H      tau(  16) = (   0.3357500   0.7500000   0.7999579  )
        17        H      tau(  17) = (   0.6642500   0.7500000   0.7999579  )
        18        H      tau(  18) = (   0.3357500   0.2500000   0.6422392  )
        19        H      tau(  19) = (   0.8357500   0.2500000   0.0788593  )
        20        H      tau(  20) = (   0.1642500   0.7500000   1.3633378  )
        21        H      tau(  21) = (   0.5000000   0.9142500   0.2816900  )
        22        H      tau(  22) = (   0.5000000   0.0857500   1.1605072  )
        23        H      tau(  23) = (   0.0000000   0.0857500   1.0027885  )
        24        H      tau(  24) = (   0.0000000   0.9142500   0.4394086  )

     number of k points=   144

     Number of k-points >= 100: set verbosity='high' to print them.

     Dense  grid:   110091 G-vectors     FFT dimensions: (  54,  54,  75)

     Estimated max dynamical RAM per process >      12.79 MB

     Estimated total dynamical RAM >       1.52 GB

     Initial potential from superposition of free atoms

     starting charge      63.9998, renormalised to      64.0000
     Starting wfcs are   48 randomized atomic wfcs

     total cpu time spent up to now is        1.4 secs

     per-process dynamical memory:    19.4 Mb

     Self-consistent Calculation

     iteration #  1     ecut=    90.00 Ry     beta= 0.70
     Davidson diagonalization with overlap
     ethr =  1.00E-02,  avg # of iterations =  2.0

     total cpu time spent up to now is        3.4 secs

     total energy              =    -274.77016865 Ry
     estimated scf accuracy    <       2.70721067 Ry

     iteration #  2     ecut=    90.00 Ry     beta= 0.70
     Davidson diagonalization with overlap
     ethr =  4.23E-03,  avg # of iterations =  3.0

     total cpu time spent up to now is        5.9 secs

     total energy              =    -275.64085997 Ry
     estimated scf accuracy    <       1.32851297 Ry

     iteration #  3     ecut=    90.00 Ry     beta= 0.70
     Davidson diagonalization with overlap
     ethr =  2.08E-03,  avg # of iterations =  2.0

     total cpu time spent up to now is        7.7 secs

     total energy              =    -275.79810149 Ry
     estimated scf accuracy    <       0.05588130 Ry

     iteration #  4     ecut=    90.00 Ry     beta= 0.70
     Davidson diagonalization with overlap
     ethr =  8.73E-05,  avg # of iterations =  4.1

     total cpu time spent up to now is       10.5 secs

     total energy              =    -275.83819060 Ry
     estimated scf accuracy    <       0.08028197 Ry

     iteration #  5     ecut=    90.00 Ry     beta= 0.70
     Davidson diagonalization with overlap
     ethr =  8.73E-05,  avg # of iterations =  2.0

     total cpu time spent up to now is       12.4 secs

     total energy              =    -275.83990914 Ry
     estimated scf accuracy    <       0.01221112 Ry

     iteration #  6     ecut=    90.00 Ry     beta= 0.70
     Davidson diagonalization with overlap
     ethr =  1.91E-05,  avg # of iterations =  2.8

     total cpu time spent up to now is       14.5 secs

     total energy              =    -275.84331989 Ry
     estimated scf accuracy    <       0.00006992 Ry

     iteration #  7     ecut=    90.00 Ry     beta= 0.70
     Davidson diagonalization with overlap
     ethr =  1.09E-07,  avg # of iterations =  5.8

     total cpu time spent up to now is       18.0 secs

     total energy              =    -275.84352723 Ry
     estimated scf accuracy    <       0.00022026 Ry

     iteration #  8     ecut=    90.00 Ry     beta= 0.70
     Davidson diagonalization with overlap
     ethr =  1.09E-07,  avg # of iterations =  2.0

     total cpu time spent up to now is       20.1 secs

     total energy              =    -275.84353575 Ry
     estimated scf accuracy    <       0.00002851 Ry

     iteration #  9     ecut=    90.00 Ry     beta= 0.70
     Davidson diagonalization with overlap
     ethr =  4.45E-08,  avg # of iterations =  3.0

     total cpu time spent up to now is       22.3 secs

     total energy              =    -275.84354412 Ry
     estimated scf accuracy    <       0.00000012 Ry

     iteration # 10     ecut=    90.00 Ry     beta= 0.70
     Davidson diagonalization with overlap
     ethr =  1.93E-10,  avg # of iterations =  6.1

     total cpu time spent up to now is       26.1 secs

     total energy              =    -275.84354463 Ry
     estimated scf accuracy    <       0.00000043 Ry

     iteration # 11     ecut=    90.00 Ry     beta= 0.70
     Davidson diagonalization with overlap
     ethr =  1.93E-10,  avg # of iterations =  2.9

     total cpu time spent up to now is       28.3 secs

     End of self-consistent calculation

     Number of k-points >= 100: set verbosity='high' to print the bands.

     highest occupied level (ev):     0.1234

!    total energy              =    -275.84354463 Ry
     estimated scf accuracy    <       0.00000005 Ry

     The total energy is the sum of the following terms:
     one-electron contribution =    -121.92550509 Ry
     hartree contribution      =      88.85623781 Ry
     xc contribution           =     -68.43752683 Ry
     ewald contribution        =    -174.33675052 Ry

     convergence has been achieved in  11 iterations

     Forces acting on atoms (cartesian axes, Ry/au):

     atom    1 type  2   force =     0.00000000   -0.00000001   -0.08498410
     atom    2 type  2   force =     0.00000000    0.00000001    0.08498410
     atom    3 type  2   force =     0.00000000    0.00000000   -0.08518180
     atom    4 type  2   force =     0.00000000   -0.00000000    0.08518180
     atom    5 type  2   force =    -0.00000000    0.00000001   -0.08509903
     atom    6 type  2   force =    -0.00000000   -0.00000001    0.08509903
     atom    7 type  2   force =     0.00000000   -0.00000001   -0.08507680
     atom    8 type  2   force =     0.00000000    0.00000001    0.08507680
     atom    9 type  1   force =     0.00000000    0.06461475    0.04315896
     atom   10 type  1   force =     0.00000000   -0.06461475   -0.04315896
     atom   11 type  1   force =     0.00000000   -0.06461001    0.04317568
     atom   12 type  1   force =     0.00000000    0.06461001   -0.04317568
     atom   13 type  1   force =    -0.06461270   -0.00000000    0.04316586
     atom   14 type  1   force =     0.06461270    0.00000000   -0.04316586
     atom   15 type  1   force =     0.06461225   -0.00000000    0.04317066
     atom   16 type  1   force =    -0.06461225    0.00000000   -0.04317066
     atom   17 type  1   force =     0.06461225    0.00000000   -0.04317066
     atom   18 type  1   force =    -0.06461225   -0.00000000    0.04317066
     atom   19 type  1   force =    -0.06461270    0.00000000   -0.04316586
     atom   20 type  1   force =     0.06461270   -0.00000000    0.04316586
     atom   21 type  1   force =     0.00000000    0.06461002    0.04317568
     atom   22 type  1   force =     0.00000000   -0.06461002   -0.04317568
     atom   23 type  1   force =     0.00000000   -0.06461475    0.04315896
     atom   24 type  1   force =     0.00000000    0.06461475   -0.04315896

     Total force =     0.393100     Total SCF correction =     0.000241


     Computing stress (Cartesian axis) and pressure

          total   stress  (Ry/bohr**3)                   (kbar)     P=      157.49
   0.00105781   0.00000000   0.00000000          155.61        0.00        0.00
   0.00000000   0.00105795   0.00000000            0.00      155.63        0.00
   0.00000000   0.00000000   0.00109611            0.00        0.00      161.24


     BFGS Geometry Optimization
     Energy error            =      0.0E+00 Ry
     Gradient error          =      8.5E-02 Ry/Bohr

     number of scf cycles    =   1
     number of bfgs steps    =   0

     energy             new  =    -275.8435446301 Ry

     new trust radius        =       0.0851817973 bohr
     new conv_thr            =       0.0000001000 Ry


ATOMIC_POSITIONS (crystal)
O                0.0000000000        0.2499999988        0.6021094772
O                0.0000000000        0.7500000012        0.3978905518
O                0.5000000000        0.7500000005        0.1020937209
O                0.5000000000        0.2499999995        0.8979062501
O               -0.0000000000        0.7500000016        0.8521003343
O               -0.0000000000        0.2499999984        0.1478996947
O                0.5000000000        0.2499999989        0.3521020732
O                0.5000000000        0.7500000011        0.6478978978
H                0.0000000000        0.4216631023        0.6987533395
H                0.0000000000        0.5783368677        0.3012466605
H                0.5000000000        0.5783374115        0.1987546690
H                0.5000000000        0.4216625585        0.8012453310
H                0.8283371029        0.7500000000        0.9487538883
H                0.1716628671        0.2500000000        0.0512461117
H                0.6716628453        0.2499999997        0.4487542702
H                0.3283371847        0.7500000003        0.5512457298
H                0.6716628453        0.7500000003        0.5512457298
H                0.3283371847        0.2499999997        0.4487542702
H                0.8283371029        0.2500000000        0.0512461117
H                0.1716628671        0.7500000000        0.9487538883
H                0.5000000000        0.9216625886        0.1987546690
H                0.5000000000        0.0783374414        0.8012453310
H                0.0000000000        0.0783368978        0.6987533394
H                0.0000000000        0.9216631322        0.3012466606



     Writing config-only to output data dir ./iceVIII/iceVIII.save/ :
     XML data file
     NEW-OLD atomic charge density approx. for the potential

     total cpu time spent up to now is       30.1 secs

     per-process dynamical memory:    22.6 Mb

     Self-consistent Calculation

     iteration #  1     ecut=    90.00 Ry     beta= 0.70
     Davidson diagonalization with overlap
     ethr =  1.00E-06,  avg # of iterations =  9.0

     total cpu time spent up to now is       35.4 secs

     total energy              =    -275.85457142 Ry
     estimated scf accuracy    <       0.05484009 Ry

     iteration #  2     ecut=    90.00 Ry     beta= 0.70
     Davidson diagonalization with overlap
     ethr =  8.57E-05,  avg # of iterations =  3.0

     total cpu time spent up to now is       37.8 secs

     total energy              =    -275.87030262 Ry
     estimated scf accuracy    <       0.01943930 Ry

     iteration #  3     ecut=    90.00 Ry     beta= 0.70
     Davidson diagonalization with overlap
     ethr =  3.04E-05,  avg # of iterations =  2.0

     total cpu time spent up to now is       39.7 secs

     total energy              =    -275.87310245 Ry
     estimated scf accuracy    <       0.00047656 Ry

     iteration #  4     ecut=    90.00 Ry     beta= 0.70
     Davidson diagonalization with overlap
     ethr =  7.45E-07,  avg # of iterations =  4.1

     total cpu time spent up to now is       42.5 secs

     total energy              =    -275.87346279 Ry
     estimated scf accuracy    <       0.00046725 Ry

     iteration #  5     ecut=    90.00 Ry     beta= 0.70
     Davidson diagonalization with overlap
     ethr =  7.30E-07,  avg # of iterations =  2.0

     total cpu time spent up to now is       44.5 secs

     total energy              =    -275.87356649 Ry
     estimated scf accuracy    <       0.00000248 Ry

     iteration #  6     ecut=    90.00 Ry     beta= 0.70
     Davidson diagonalization with overlap
     ethr =  3.88E-09,  avg # of iterations =  5.1

     total cpu time spent up to now is       47.8 secs

     total energy              =    -275.87356493 Ry
     estimated scf accuracy    <       0.00001493 Ry

     iteration #  7     ecut=    90.00 Ry     beta= 0.70
     Davidson diagonalization with overlap
     ethr =  3.88E-09,  avg # of iterations =  4.0

     total cpu time spent up to now is       50.7 secs

     End of self-consistent calculation

     Number of k-points >= 100: set verbosity='high' to print the bands.

     highest occupied level (ev):     0.2420

!    total energy              =    -275.87356819 Ry
     estimated scf accuracy    <       0.00000009 Ry

     The total energy is the sum of the following terms:
     one-electron contribution =    -114.44968357 Ry
     hartree contribution      =      85.59414414 Ry
     xc contribution           =     -67.58870513 Ry
     ewald contribution        =    -179.42932363 Ry

     convergence has been achieved in   7 iterations

     Forces acting on atoms (cartesian axes, Ry/au):

     atom    1 type  2   force =     0.00000000    0.00000001    0.05812099
     atom    2 type  2   force =     0.00000000   -0.00000001   -0.05812099
     atom    3 type  2   force =     0.00000000   -0.00000000    0.05841396
     atom    4 type  2   force =     0.00000000    0.00000000   -0.05841396
     atom    5 type  2   force =     0.00000000   -0.00000000    0.05831078
     atom    6 type  2   force =     0.00000000    0.00000000   -0.05831078
     atom    7 type  2   force =     0.00000000    0.00000000    0.05823138
     atom    8 type  2   force =     0.00000000   -0.00000000   -0.05823138
     atom    9 type  1   force =     0.00000000   -0.01585754   -0.02593281
     atom   10 type  1   force =     0.00000000    0.01585754    0.02593281
     atom   11 type  1   force =     0.00000000    0.01591161   -0.02599525
     atom   12 type  1   force =     0.00000000   -0.01591161    0.02599525
     atom   13 type  1   force =     0.01588567    0.00000000   -0.02597622
     atom   14 type  1   force =    -0.01588567   -0.00000000    0.02597622
     atom   15 type  1   force =    -0.01588296   -0.00000000   -0.02595342
     atom   16 type  1   force =     0.01588296    0.00000000    0.02595342
     atom   17 type  1   force =    -0.01588296    0.00000000    0.02595342
     atom   18 type  1   force =     0.01588296   -0.00000000   -0.02595342
     atom   19 type  1   force =     0.01588567   -0.00000000    0.02597622
     atom   20 type  1   force =    -0.01588567    0.00000000   -0.02597622
     atom   21 type  1   force =     0.00000000   -0.01591161   -0.02599525
     atom   22 type  1   force =     0.00000000    0.01591161    0.02599525
     atom   23 type  1   force =     0.00000000    0.01585753   -0.02593281
     atom   24 type  1   force =     0.00000000   -0.01585753    0.02593281

     Total force =     0.204905     Total SCF correction =     0.000084


     Computing stress (Cartesian axis) and pressure

          total   stress  (Ry/bohr**3)                   (kbar)     P=      -17.35
  -0.00002605   0.00000000   0.00000000           -3.83        0.00        0.00
   0.00000000  -0.00002585  -0.00000000            0.00       -3.80       -0.00
   0.00000000  -0.00000000  -0.00030187            0.00       -0.00      -44.41

     Energy error            =      3.0E-02 Ry
     Gradient error          =      5.8E-02 Ry/Bohr

     number of scf cycles    =   2
     number of bfgs steps    =   1

     energy             old  =    -275.8435446301 Ry
     energy             new  =    -275.8735681881 Ry

     CASE: energy            _new < energy            _old

     new trust radius        =       0.0378496440 bohr
     new conv_thr            =       0.0000001000 Ry


ATOMIC_POSITIONS (crystal)
O                0.0000000000        0.2499999997        0.6051049917
O                0.0000000000        0.7500000003        0.3948950373
O                0.5000000000        0.7500000002        0.1051046899
O                0.5000000000        0.2499999998        0.8948952811
O               -0.0000000000        0.7500000014        0.8551058805
O               -0.0000000000        0.2499999986        0.1448941485
O                0.5000000000        0.2499999990        0.3551033828
O                0.5000000000        0.7500000010        0.6448965882
H                0.0000000000        0.4205762664        0.6974248366
H                0.0000000000        0.5794237036        0.3025751634
H                0.5000000000        0.5794284524        0.1974228334
H                0.5000000000        0.4205715176        0.8025771666
H                0.8294261253        0.7500000000        0.9474230611
H                0.1705738447        0.2500000000        0.0525769389
H                0.6705740315        0.2499999997        0.4474246768
H                0.3294259985        0.7500000003        0.5525753232
H                0.6705740315        0.7500000003        0.5525753232
H                0.3294259985        0.2499999997        0.4474246768
H                0.8294261253        0.2500000000        0.0525769389
H                0.1705738447        0.7500000000        0.9474230611
H                0.5000000000        0.9205715481        0.1974228335
H                0.5000000000        0.0794284819        0.8025771665
H                0.0000000000        0.0794237329        0.6974248369
H                0.0000000000        0.9205762971        0.3025751631



     Writing config-only to output data dir ./iceVIII/iceVIII.save/ :
     XML data file
     NEW-OLD atomic charge density approx. for the potential

     total cpu time spent up to now is       52.4 secs

     per-process dynamical memory:    22.6 Mb

     Self-consistent Calculation

     iteration #  1     ecut=    90.00 Ry     beta= 0.70
     Davidson diagonalization with overlap
     ethr =  1.00E-06,  avg # of iterations =  7.4

     total cpu time spent up to now is       56.7 secs

     total energy              =    -275.88827986 Ry
     estimated scf accuracy    <       0.00581200 Ry

     iteration #  2     ecut=    90.00 Ry     beta= 0.70
     Davidson diagonalization with overlap
     ethr =  9.08E-06,  avg # of iterations =  3.0

     total cpu time spent up to now is       59.0 secs

     total energy              =    -275.88998571 Ry
     estimated scf accuracy    <       0.00146605 Ry

     iteration #  3     ecut=    90.00 Ry     beta= 0.70
     Davidson diagonalization with overlap
     ethr =  2.29E-06,  avg # of iterations =  2.0

     total cpu time spent up to now is       60.7 secs

     total energy              =    -275.89013941 Ry
     estimated scf accuracy    <       0.00004978 Ry

     iteration #  4     ecut=    90.00 Ry     beta= 0.70
     Davidson diagonalization with overlap
     ethr =  7.78E-08,  avg # of iterations =  4.6

     total cpu time spent up to now is       63.4 secs

     total energy              =    -275.89016548 Ry
     estimated scf accuracy    <       0.00003715 Ry

     iteration #  5     ecut=    90.00 Ry     beta= 0.70
     Davidson diagonalization with overlap
     ethr =  5.80E-08,  avg # of iterations =  3.0

     total cpu time spent up to now is       65.6 secs

     total energy              =    -275.89017642 Ry
     estimated scf accuracy    <       0.00000247 Ry

     iteration #  6     ecut=    90.00 Ry     beta= 0.70
     Davidson diagonalization with overlap
     ethr =  3.86E-09,  avg # of iterations =  2.0

     total cpu time spent up to now is       67.4 secs

     total energy              =    -275.89017668 Ry
     estimated scf accuracy    <       0.00000014 Ry

     iteration #  7     ecut=    90.00 Ry     beta= 0.70
     Davidson diagonalization with overlap
     ethr =  2.22E-10,  avg # of iterations =  3.0

     total cpu time spent up to now is       69.6 secs

     End of self-consistent calculation

     Number of k-points >= 100: set verbosity='high' to print the bands.

     highest occupied level (ev):     0.2129

!    total energy              =    -275.89017673 Ry
     estimated scf accuracy    <       0.00000002 Ry

     The total energy is the sum of the following terms:
     one-electron contribution =    -116.56551216 Ry
     hartree contribution      =      86.51418760 Ry
     xc contribution           =     -67.84363622 Ry
     ewald contribution        =    -177.99521595 Ry

     convergence has been achieved in   7 iterations

     Forces acting on atoms (cartesian axes, Ry/au):

     atom    1 type  2   force =     0.00000000   -0.00000000    0.01495693
     atom    2 type  2   force =     0.00000000    0.00000000   -0.01495693
     atom    3 type  2   force =    -0.00000000    0.00000000    0.01495389
     atom    4 type  2   force =    -0.00000000   -0.00000000   -0.01495389
     atom    5 type  2   force =     0.00000000   -0.00000000    0.01488806
     atom    6 type  2   force =     0.00000000    0.00000000   -0.01488806
     atom    7 type  2   force =    -0.00000000    0.00000000    0.01501748
     atom    8 type  2   force =    -0.00000000   -0.00000000   -0.01501748
     atom    9 type  1   force =     0.00000000    0.00121520   -0.00538686
     atom   10 type  1   force =     0.00000000   -0.00121520    0.00538686
     atom   11 type  1   force =     0.00000000   -0.00123950   -0.00535101
     atom   12 type  1   force =     0.00000000    0.00123950    0.00535101
     atom   13 type  1   force =    -0.00123507    0.00000000   -0.00536833
     atom   14 type  1   force =     0.00123507   -0.00000000    0.00536833
     atom   15 type  1   force =     0.00122095   -0.00000000   -0.00536994
     atom   16 type  1   force =    -0.00122095    0.00000000    0.00536994
     atom   17 type  1   force =     0.00122095    0.00000000    0.00536994
     atom   18 type  1   force =    -0.00122095   -0.00000000   -0.00536994
     atom   19 type  1   force =    -0.00123507   -0.00000000    0.00536833
     atom   20 type  1   force =     0.00123507    0.00000000   -0.00536833
     atom   21 type  1   force =     0.00000000    0.00123950   -0.00535101
     atom   22 type  1   force =     0.00000000   -0.00123950    0.00535101
     atom   23 type  1   force =     0.00000000   -0.00121520   -0.00538686
     atom   24 type  1   force =     0.00000000    0.00121520    0.00538686

     Total force =     0.047690     Total SCF correction =     0.000044


     Computing stress (Cartesian axis) and pressure

          total   stress  (Ry/bohr**3)                   (kbar)     P=       29.78
   0.00023548   0.00000000   0.00000000           34.64        0.00        0.00
   0.00000000   0.00023568   0.00000000            0.00       34.67        0.00
   0.00000000   0.00000000   0.00013614            0.00        0.00       20.03

     Energy error            =      1.7E-02 Ry
     Gradient error          =      1.5E-02 Ry/Bohr

     number of scf cycles    =   3
     number of bfgs steps    =   2

     energy             old  =    -275.8735681881 Ry
     energy             new  =    -275.8901767298 Ry

     CASE: energy            _new < energy            _old

     new trust radius        =       0.0147726025 bohr
     new conv_thr            =       0.0000001000 Ry


ATOMIC_POSITIONS (crystal)
O                0.0000000000        0.2499999995        0.6062746120
O                0.0000000000        0.7500000005        0.3937254170
O                0.5000000000        0.7500000002        0.1062725306
O                0.5000000000        0.2499999998        0.8937274404
O               -0.0000000000        0.7500000012        0.8562675929
O               -0.0000000000        0.2499999988        0.1437324361
O                0.5000000000        0.2499999991        0.3562785550
O                0.5000000000        0.7500000009        0.6437214160
H                0.0000000000        0.4209569885        0.6970391467
H                0.0000000000        0.5790429815        0.3029608533
H                0.5000000000        0.5790438605        0.1970410563
H                0.5000000000        0.4209561095        0.8029589437
H                0.8290423340        0.7500000001        0.9470394386
H                0.1709576360        0.2499999999        0.0529605614
H                0.6709557446        0.2499999997        0.4470408001
H                0.3290442854        0.7500000003        0.5529591999
H                0.6709557446        0.7500000003        0.5529591999
H                0.3290442854        0.2499999997        0.4470408001
H                0.8290423340        0.2499999999        0.0529605614
H                0.1709576360        0.7500000001        0.9470394386
H                0.5000000000        0.9209561398        0.1970410564
H                0.5000000000        0.0790438902        0.8029589436
H                0.0000000000        0.0790430110        0.6970391469
H                0.0000000000        0.9209570190        0.3029608531



     Writing config-only to output data dir ./iceVIII/iceVIII.save/ :
     XML data file
     NEW-OLD atomic charge density approx. for the potential

     total cpu time spent up to now is       71.4 secs

     per-process dynamical memory:    22.9 Mb

     Self-consistent Calculation

     iteration #  1     ecut=    90.00 Ry     beta= 0.70
     Davidson diagonalization with overlap
     ethr =  1.00E-06,  avg # of iterations =  4.0

     total cpu time spent up to now is       74.5 secs

     total energy              =    -275.89136408 Ry
     estimated scf accuracy    <       0.00044100 Ry

     iteration #  2     ecut=    90.00 Ry     beta= 0.70
     Davidson diagonalization with overlap
     ethr =  6.89E-07,  avg # of iterations =  2.7

     total cpu time spent up to now is       76.7 secs

     total energy              =    -275.89147629 Ry
     estimated scf accuracy    <       0.00008863 Ry

     iteration #  3     ecut=    90.00 Ry     beta= 0.70
     Davidson diagonalization with overlap
     ethr =  1.38E-07,  avg # of iterations =  2.0

     total cpu time spent up to now is       78.6 secs

     total energy              =    -275.89148907 Ry
     estimated scf accuracy    <       0.00000257 Ry

     iteration #  4     ecut=    90.00 Ry     beta= 0.70
     Davidson diagonalization with overlap
     ethr =  4.02E-09,  avg # of iterations =  3.9

     total cpu time spent up to now is       81.2 secs

     total energy              =    -275.89148958 Ry
     estimated scf accuracy    <       0.00000220 Ry

     iteration #  5     ecut=    90.00 Ry     beta= 0.70
     Davidson diagonalization with overlap
     ethr =  3.44E-09,  avg # of iterations =  3.0

     total cpu time spent up to now is       83.6 secs

     total energy              =    -275.89149027 Ry
     estimated scf accuracy    <       0.00000059 Ry

     iteration #  6     ecut=    90.00 Ry     beta= 0.70
     Davidson diagonalization with overlap
     ethr =  9.17E-10,  avg # of iterations =  2.0

     total cpu time spent up to now is       85.5 secs

     End of self-consistent calculation

     Number of k-points >= 100: set verbosity='high' to print the bands.

     highest occupied level (ev):     0.2109

!    total energy              =    -275.89149038 Ry
     estimated scf accuracy    <          1.7E-09 Ry

     The total energy is the sum of the following terms:
     one-electron contribution =    -117.02483948 Ry
     hartree contribution      =      86.71333300 Ry
     xc contribution           =     -67.90210468 Ry
     ewald contribution        =    -177.67787922 Ry

     convergence has been achieved in   6 iterations

     Forces acting on atoms (cartesian axes, Ry/au):

     atom    1 type  2   force =     0.00000000    0.00000000    0.00185122
     atom    2 type  2   force =     0.00000000   -0.00000000   -0.00185122
     atom    3 type  2   force =     0.00000000   -0.00000000    0.00183827
     atom    4 type  2   force =     0.00000000    0.00000000   -0.00183827
     atom    5 type  2   force =     0.00000000   -0.00000000    0.00184588
     atom    6 type  2   force =     0.00000000    0.00000000   -0.00184588
     atom    7 type  2   force =     0.00000000    0.00000000    0.00184476
     atom    8 type  2   force =     0.00000000   -0.00000000   -0.00184476
     atom    9 type  1   force =     0.00000000    0.00439271    0.00080219
     atom   10 type  1   force =     0.00000000   -0.00439271   -0.00080219
     atom   11 type  1   force =     0.00000000   -0.00437485    0.00080261
     atom   12 type  1   force =     0.00000000    0.00437485   -0.00080261
     atom   13 type  1   force =    -0.00435876    0.00000000    0.00076936
     atom   14 type  1   force =     0.00435876   -0.00000000   -0.00076936
     atom   15 type  1   force =     0.00440785   -0.00000000    0.00083139
     atom   16 type  1   force =    -0.00440785    0.00000000   -0.00083139
     atom   17 type  1   force =     0.00440785    0.00000000   -0.00083139
     atom   18 type  1   force =    -0.00440785   -0.00000000    0.00083139
     atom   19 type  1   force =    -0.00435876   -0.00000000   -0.00076936
     atom   20 type  1   force =     0.00435876    0.00000000    0.00076936
     atom   21 type  1   force =     0.00000000    0.00437485    0.00080261
     atom   22 type  1   force =     0.00000000   -0.00437485   -0.00080261
     atom   23 type  1   force =     0.00000000   -0.00439271    0.00080219
     atom   24 type  1   force =     0.00000000    0.00439271   -0.00080219

     Total force =     0.018573     Total SCF correction =     0.000168


     Computing stress (Cartesian axis) and pressure

          total   stress  (Ry/bohr**3)                   (kbar)     P=       39.83
   0.00028330   0.00000000   0.00000000           41.68        0.00        0.00
   0.00000000   0.00028352  -0.00000000            0.00       41.71       -0.00
   0.00000000  -0.00000000   0.00024536            0.00       -0.00       36.09

     Energy error            =      1.3E-03 Ry
     Gradient error          =      4.4E-03 Ry/Bohr

     number of scf cycles    =   4
     number of bfgs steps    =   3

     energy             old  =    -275.8901767298 Ry
     energy             new  =    -275.8914903817 Ry

     CASE: energy            _new < energy            _old

     new trust radius        =       0.0061163234 bohr
     new conv_thr            =       0.0000000131 Ry


ATOMIC_POSITIONS (crystal)
O                0.0000000000        0.2499999999        0.6067606042
O                0.0000000000        0.7500000001        0.3932394248
O                0.5000000000        0.7500000001        0.1067576718
O                0.5000000000        0.2499999999        0.8932422992
O                0.0000000000        0.7500000010        0.8567521960
O                0.0000000000        0.2499999990        0.1432478330
O                0.5000000000        0.2499999992        0.3567651133
O                0.5000000000        0.7500000008        0.6432348577
H                0.0000000000        0.4216239471        0.6970052273
H                0.0000000000        0.5783760229        0.3029947727
H                0.5000000000        0.5783789506        0.1970076739
H                0.5000000000        0.4216210194        0.8029923261
H                0.8283796873        0.7500000002        0.9470025903
H                0.1716202827        0.2499999998        0.0529974097
H                0.6716248691        0.2499999996        0.4470099482
H                0.3283751609        0.7500000004        0.5529900518
H                0.6716248691        0.7500000004        0.5529900518
H                0.3283751609        0.2499999996        0.4470099482
H                0.8283796873        0.2499999998        0.0529974097
H                0.1716202827        0.7500000002        0.9470025903
H                0.5000000000        0.9216210498        0.1970076741
H                0.5000000000        0.0783789802        0.8029923259
H                0.0000000000        0.0783760522        0.6970052277
H                0.0000000000        0.9216239778        0.3029947723



     Writing config-only to output data dir ./iceVIII/iceVIII.save/ :
     XML data file
     NEW-OLD atomic charge density approx. for the potential

     total cpu time spent up to now is       87.3 secs

     per-process dynamical memory:    22.9 Mb

     Self-consistent Calculation

     iteration #  1     ecut=    90.00 Ry     beta= 0.70
     Davidson diagonalization with overlap
     ethr =  1.00E-06,  avg # of iterations =  3.0

     Threshold (ethr) on eigenvalues was too large:
     Diagonalizing with lowered threshold

     Davidson diagonalization with overlap
     ethr =  5.38E-08,  avg # of iterations =  2.4

     total cpu time spent up to now is       91.5 secs

     total energy              =    -275.89184621 Ry
     estimated scf accuracy    <       0.00003640 Ry

     iteration #  2     ecut=    90.00 Ry     beta= 0.70
     Davidson diagonalization with overlap
     ethr =  5.69E-08,  avg # of iterations =  2.0

     total cpu time spent up to now is       93.3 secs

     total energy              =    -275.89185144 Ry
     estimated scf accuracy    <       0.00000150 Ry

     iteration #  3     ecut=    90.00 Ry     beta= 0.70
     Davidson diagonalization with overlap
     ethr =  2.35E-09,  avg # of iterations =  2.0

     total cpu time spent up to now is       95.2 secs

     total energy              =    -275.89185175 Ry
     estimated scf accuracy    <       0.00000021 Ry

     iteration #  4     ecut=    90.00 Ry     beta= 0.70
     Davidson diagonalization with overlap
     ethr =  3.26E-10,  avg # of iterations =  2.1

     total cpu time spent up to now is       97.3 secs

     total energy              =    -275.89185180 Ry
     estimated scf accuracy    <       0.00000002 Ry

     iteration #  5     ecut=    90.00 Ry     beta= 0.70
     Davidson diagonalization with overlap
     ethr =  3.43E-11,  avg # of iterations =  2.3

     total cpu time spent up to now is       99.2 secs

     End of self-consistent calculation

     Number of k-points >= 100: set verbosity='high' to print the bands.

     highest occupied level (ev):     0.2160

!    total energy              =    -275.89185180 Ry
     estimated scf accuracy    <          3.0E-09 Ry

     The total energy is the sum of the following terms:
     one-electron contribution =    -116.94442411 Ry
     hartree contribution      =      86.67832127 Ry
     xc contribution           =     -67.89774320 Ry
     ewald contribution        =    -177.72800577 Ry

     convergence has been achieved in   5 iterations

     Forces acting on atoms (cartesian axes, Ry/au):

     atom    1 type  2   force =     0.00000000   -0.00000000   -0.00007144
     atom    2 type  2   force =     0.00000000    0.00000000    0.00007144
     atom    3 type  2   force =     0.00000000    0.00000000   -0.00011503
     atom    4 type  2   force =     0.00000000   -0.00000000    0.00011503
     atom    5 type  2   force =     0.00000000   -0.00000000   -0.00012744
     atom    6 type  2   force =     0.00000000    0.00000000    0.00012744
     atom    7 type  2   force =     0.00000000    0.00000000   -0.00006330
     atom    8 type  2   force =     0.00000000   -0.00000000    0.00006330
     atom    9 type  1   force =     0.00000000    0.00266213    0.00161246
     atom   10 type  1   force =     0.00000000   -0.00266213   -0.00161246
     atom   11 type  1   force =     0.00000000   -0.00264941    0.00161156
     atom   12 type  1   force =     0.00000000    0.00264941   -0.00161156
     atom   13 type  1   force =    -0.00265879    0.00000000    0.00159856
     atom   14 type  1   force =     0.00265879   -0.00000000   -0.00159856
     atom   15 type  1   force =     0.00265540   -0.00000000    0.00162358
     atom   16 type  1   force =    -0.00265540    0.00000000   -0.00162358
     atom   17 type  1   force =     0.00265540    0.00000000   -0.00162358
     atom   18 type  1   force =    -0.00265540   -0.00000000    0.00162358
     atom   19 type  1   force =    -0.00265879   -0.00000000   -0.00159856
     atom   20 type  1   force =     0.00265879    0.00000000    0.00159856
     atom   21 type  1   force =     0.00000000    0.00264941    0.00161156
     atom   22 type  1   force =     0.00000000   -0.00264941   -0.00161156
     atom   23 type  1   force =     0.00000000   -0.00266213    0.00161246
     atom   24 type  1   force =     0.00000000    0.00266213   -0.00161246

     Total force =     0.012431     Total SCF correction =     0.000170


     Computing stress (Cartesian axis) and pressure

          total   stress  (Ry/bohr**3)                   (kbar)     P=       38.09
   0.00026320   0.00000000   0.00000000           38.72        0.00        0.00
   0.00000000   0.00026342   0.00000000            0.00       38.75        0.00
   0.00000000   0.00000000   0.00025023            0.00        0.00       36.81

     Energy error            =      3.6E-04 Ry
     Gradient error          =      2.7E-03 Ry/Bohr

     number of scf cycles    =   5
     number of bfgs steps    =   4

     energy             old  =    -275.8914903817 Ry
     energy             new  =    -275.8918518036 Ry

     CASE: energy            _new < energy            _old

     new trust radius        =       0.0063376499 bohr
     new conv_thr            =       0.0000000036 Ry


ATOMIC_POSITIONS (crystal)
O                0.0000000000        0.2499999993        0.6071668390
O                0.0000000000        0.7500000007        0.3928331900
O                0.5000000000        0.7500000003        0.1071579291
O                0.5000000000        0.2499999997        0.8928420419
O                0.0000000000        0.7500000008        0.8571493446
O                0.0000000000        0.2499999992        0.1428506844
O                0.5000000000        0.2499999994        0.3571737647
O                0.5000000000        0.7500000006        0.6428262063
H                0.0000000000        0.4223333837        0.6971156956
H                0.0000000000        0.5776665863        0.3028843044
H                0.5000000000        0.5776724192        0.1971184102
H                0.5000000000        0.4223275508        0.8028815898
H                0.8276715203        0.7500000003        0.9471105467
H                0.1723284497        0.2499999997        0.0528894533
H                0.6723332521        0.2499999996        0.4471228314
H                0.3276667779        0.7500000004        0.5528771686
H                0.6723332521        0.7500000004        0.5528771686
H                0.3276667779        0.2499999996        0.4471228314
H                0.8276715203        0.2499999997        0.0528894533
H                0.1723284497        0.7500000003        0.9471105467
H                0.5000000000        0.9223275808        0.1971184102
H                0.5000000000        0.0776724492        0.8028815898
H                0.0000000000        0.0776666163        0.6971156957
H                0.0000000000        0.9223334137        0.3028843043



     Writing config-only to output data dir ./iceVIII/iceVIII.save/ :
     XML data file
     NEW-OLD atomic charge density approx. for the potential

     total cpu time spent up to now is      101.0 secs

     per-process dynamical memory:    22.9 Mb

     Self-consistent Calculation

     iteration #  1     ecut=    90.00 Ry     beta= 0.70
     Davidson diagonalization with overlap
     ethr =  1.00E-06,  avg # of iterations =  3.0

     Threshold (ethr) on eigenvalues was too large:
     Diagonalizing with lowered threshold

     Davidson diagonalization with overlap
     ethr =  4.45E-08,  avg # of iterations =  3.4

     total cpu time spent up to now is      105.5 secs

     total energy              =    -275.89201127 Ry
     estimated scf accuracy    <       0.00003500 Ry

     iteration #  2     ecut=    90.00 Ry     beta= 0.70
     Davidson diagonalization with overlap
     ethr =  5.47E-08,  avg # of iterations =  2.0

     total cpu time spent up to now is      107.4 secs

     total energy              =    -275.89201669 Ry
     estimated scf accuracy    <       0.00000347 Ry

     iteration #  3     ecut=    90.00 Ry     beta= 0.70
     Davidson diagonalization with overlap
     ethr =  5.43E-09,  avg # of iterations =  2.0

     total cpu time spent up to now is      109.5 secs

     total energy              =    -275.89201748 Ry
     estimated scf accuracy    <       0.00000027 Ry

     iteration #  4     ecut=    90.00 Ry     beta= 0.70
     Davidson diagonalization with overlap
     ethr =  4.14E-10,  avg # of iterations =  2.0

     total cpu time spent up to now is      111.1 secs

     total energy              =    -275.89201750 Ry
     estimated scf accuracy    <       0.00000002 Ry

     iteration #  5     ecut=    90.00 Ry     beta= 0.70
     Davidson diagonalization with overlap
     ethr =  3.48E-11,  avg # of iterations =  3.2

     total cpu time spent up to now is      113.4 secs

     total energy              =    -275.89201751 Ry
     estimated scf accuracy    <          6.0E-09 Ry

     iteration #  6     ecut=    90.00 Ry     beta= 0.70
     Davidson diagonalization with overlap
     ethr =  9.43E-12,  avg # of iterations =  3.0

     total cpu time spent up to now is      115.6 secs

     End of self-consistent calculation

     Number of k-points >= 100: set verbosity='high' to print the bands.

     highest occupied level (ev):     0.2227

!    total energy              =    -275.89201751 Ry
     estimated scf accuracy    <          5.3E-10 Ry

     The total energy is the sum of the following terms:
     one-electron contribution =    -116.74424229 Ry
     hartree contribution      =      86.59046276 Ry
     xc contribution           =     -67.88033925 Ry
     ewald contribution        =    -177.85789873 Ry

     convergence has been achieved in   6 iterations

     Forces acting on atoms (cartesian axes, Ry/au):

     atom    1 type  2   force =     0.00000000    0.00000001    0.00030518
     atom    2 type  2   force =     0.00000000   -0.00000001   -0.00030518
     atom    3 type  2   force =    -0.00000000   -0.00000000    0.00027639
     atom    4 type  2   force =    -0.00000000    0.00000000   -0.00027639
     atom    5 type  2   force =     0.00000000   -0.00000000    0.00029699
     atom    6 type  2   force =     0.00000000    0.00000000   -0.00029699
     atom    7 type  2   force =     0.00000000    0.00000000    0.00028621
     atom    8 type  2   force =     0.00000000   -0.00000000   -0.00028621
     atom    9 type  1   force =     0.00000000   -0.00002825    0.00131469
     atom   10 type  1   force =     0.00000000    0.00002825   -0.00131469
     atom   11 type  1   force =     0.00000000    0.00005071    0.00129286
     atom   12 type  1   force =     0.00000000   -0.00005071   -0.00129286
     atom   13 type  1   force =     0.00004967    0.00000000    0.00127496
     atom   14 type  1   force =    -0.00004967   -0.00000000   -0.00127496
     atom   15 type  1   force =    -0.00003008   -0.00000000    0.00132757
     atom   16 type  1   force =     0.00003008    0.00000000   -0.00132757
     atom   17 type  1   force =    -0.00003008    0.00000000   -0.00132757
     atom   18 type  1   force =     0.00003008   -0.00000000    0.00132757
     atom   19 type  1   force =     0.00004967   -0.00000000   -0.00127496
     atom   20 type  1   force =    -0.00004967    0.00000000    0.00127496
     atom   21 type  1   force =     0.00000000   -0.00005071    0.00129286
     atom   22 type  1   force =     0.00000000    0.00005071   -0.00129286
     atom   23 type  1   force =     0.00000000    0.00002824    0.00131469
     atom   24 type  1   force =     0.00000000   -0.00002824   -0.00131469

     Total force =     0.005278     Total SCF correction =     0.000019


     Computing stress (Cartesian axis) and pressure

          total   stress  (Ry/bohr**3)                   (kbar)     P=       33.92
   0.00022889   0.00000000   0.00000000           33.67        0.00        0.00
   0.00000000   0.00022914  -0.00000000            0.00       33.71       -0.00
   0.00000000  -0.00000000   0.00023371            0.00       -0.00       34.38

     Energy error            =      1.7E-04 Ry
     Gradient error          =      1.3E-03 Ry/Bohr

     number of scf cycles    =   6
     number of bfgs steps    =   5

     energy             old  =    -275.8918518036 Ry
     energy             new  =    -275.8920175081 Ry

     CASE: energy            _new < energy            _old

     new trust radius        =       0.0017167285 bohr
     new conv_thr            =       0.0000000017 Ry


ATOMIC_POSITIONS (crystal)
O                0.0000000000        0.2500000002        0.6072808390
O                0.0000000000        0.7499999998        0.3927191900
O                0.5000000000        0.7499999999        0.1072687488
O                0.5000000000        0.2500000001        0.8927312222
O                0.0000000000        0.7500000006        0.8572616444
O                0.0000000000        0.2499999994        0.1427383846
O                0.5000000000        0.2499999995        0.3572863645
O                0.5000000000        0.7500000005        0.6427136065
H                0.0000000000        0.4224251108        0.6972350815
H                0.0000000000        0.5775748592        0.3027649185
H                0.5000000000        0.5775840336        0.1972358604
H                0.5000000000        0.4224159364        0.8027641396
H                0.8275829311        0.7500000003        0.9472259259
H                0.1724170389        0.2499999997        0.0527740741
H                0.6724247267        0.2499999996        0.4472437759
H                0.3275753033        0.7500000004        0.5527562241
H                0.6724247267        0.7500000004        0.5527562241
H                0.3275753033        0.2499999996        0.4472437759
H                0.8275829311        0.2499999997        0.0527740741
H                0.1724170389        0.7500000003        0.9472259259
H                0.5000000000        0.9224159668        0.1972358606
H                0.5000000000        0.0775840632        0.8027641394
H                0.0000000000        0.0775748884        0.6972350820
H                0.0000000000        0.9224251416        0.3027649180



     Writing config-only to output data dir ./iceVIII/iceVIII.save/ :
     XML data file
     NEW-OLD atomic charge density approx. for the potential

     total cpu time spent up to now is      117.3 secs

     per-process dynamical memory:    22.9 Mb

     Self-consistent Calculation

     iteration #  1     ecut=    90.00 Ry     beta= 0.70
     Davidson diagonalization with overlap
     ethr =  1.00E-06,  avg # of iterations =  2.0

     Threshold (ethr) on eigenvalues was too large:
     Diagonalizing with lowered threshold

     Davidson diagonalization with overlap
     ethr =  2.76E-09,  avg # of iterations =  4.0

     total cpu time spent up to now is      122.0 secs

     total energy              =    -275.89204704 Ry
     estimated scf accuracy    <       0.00000292 Ry

     iteration #  2     ecut=    90.00 Ry     beta= 0.70
     Davidson diagonalization with overlap
     ethr =  4.56E-09,  avg # of iterations =  2.0

     total cpu time spent up to now is      123.9 secs

     total energy              =    -275.89204761 Ry
     estimated scf accuracy    <       0.00000044 Ry

     iteration #  3     ecut=    90.00 Ry     beta= 0.70
     Davidson diagonalization with overlap
     ethr =  6.92E-10,  avg # of iterations =  2.0

     total cpu time spent up to now is      125.9 secs

     total energy              =    -275.89204770 Ry
     estimated scf accuracy    <       0.00000002 Ry

     iteration #  4     ecut=    90.00 Ry     beta= 0.70
     Davidson diagonalization with overlap
     ethr =  3.10E-11,  avg # of iterations =  2.0

     total cpu time spent up to now is      127.8 secs

     total energy              =    -275.89204770 Ry
     estimated scf accuracy    <          3.9E-09 Ry

     iteration #  5     ecut=    90.00 Ry     beta= 0.70
     Davidson diagonalization with overlap
     ethr =  6.05E-12,  avg # of iterations =  2.2

     total cpu time spent up to now is      129.9 secs

     End of self-consistent calculation

     Number of k-points >= 100: set verbosity='high' to print the bands.

     highest occupied level (ev):     0.2240

!    total energy              =    -275.89204770 Ry
     estimated scf accuracy    <          2.2E-10 Ry

     The total energy is the sum of the following terms:
     one-electron contribution =    -116.69026651 Ry
     hartree contribution      =      86.56617068 Ry
     xc contribution           =     -67.87605741 Ry
     ewald contribution        =    -177.89189446 Ry

     convergence has been achieved in   5 iterations

     Forces acting on atoms (cartesian axes, Ry/au):

     atom    1 type  2   force =     0.00000000   -0.00000001    0.00069618
     atom    2 type  2   force =     0.00000000    0.00000001   -0.00069618
     atom    3 type  2   force =     0.00000000    0.00000000    0.00065597
     atom    4 type  2   force =     0.00000000   -0.00000000   -0.00065597
     atom    5 type  2   force =    -0.00000000   -0.00000000    0.00064932
     atom    6 type  2   force =    -0.00000000    0.00000000   -0.00064932
     atom    7 type  2   force =     0.00000000    0.00000000    0.00069861
     atom    8 type  2   force =     0.00000000   -0.00000000   -0.00069861
     atom    9 type  1   force =     0.00000000   -0.00051201    0.00107862
     atom   10 type  1   force =     0.00000000    0.00051201   -0.00107862
     atom   11 type  1   force =     0.00000000    0.00052223    0.00105952
     atom   12 type  1   force =     0.00000000   -0.00052223   -0.00105952
     atom   13 type  1   force =     0.00050783    0.00000000    0.00105710
     atom   14 type  1   force =    -0.00050783   -0.00000000   -0.00105710
     atom   15 type  1   force =    -0.00052445    0.00000000    0.00107896
     atom   16 type  1   force =     0.00052445   -0.00000000   -0.00107896
     atom   17 type  1   force =    -0.00052445   -0.00000000   -0.00107896
     atom   18 type  1   force =     0.00052445    0.00000000    0.00107896
     atom   19 type  1   force =     0.00050783   -0.00000000   -0.00105710
     atom   20 type  1   force =    -0.00050783    0.00000000    0.00105710
     atom   21 type  1   force =     0.00000000   -0.00052224    0.00105952
     atom   22 type  1   force =     0.00000000    0.00052224   -0.00105952
     atom   23 type  1   force =     0.00000000    0.00051202    0.00107862
     atom   24 type  1   force =     0.00000000   -0.00051202   -0.00107862

     Total force =     0.005118     Total SCF correction =     0.000006


     Computing stress (Cartesian axis) and pressure

          total   stress  (Ry/bohr**3)                   (kbar)     P=       33.03
   0.00022257   0.00000000   0.00000000           32.74        0.00        0.00
   0.00000000   0.00022280   0.00000000            0.00       32.77        0.00
   0.00000000   0.00000000   0.00022823            0.00        0.00       33.57

     Energy error            =      3.0E-05 Ry
     Gradient error          =      1.1E-03 Ry/Bohr

     number of scf cycles    =   7
     number of bfgs steps    =   6

     energy             old  =    -275.8920175081 Ry
     energy             new  =    -275.8920477012 Ry

     CASE: energy            _new < energy            _old

     new trust radius        =       0.0018884013 bohr
     new conv_thr            =       0.0000000010 Ry


ATOMIC_POSITIONS (crystal)
O                0.0000000000        0.2500000000        0.6074128550
O                0.0000000000        0.7500000000        0.3925871740
O                0.5000000000        0.7500000000        0.1073960031
O                0.5000000000        0.2500000000        0.8926039679
O                0.0000000000        0.7500000005        0.8573891869
O                0.0000000000        0.2499999995        0.1426108421
O                0.5000000000        0.2499999996        0.3574178308
O                0.5000000000        0.7500000004        0.6425821402
H                0.0000000000        0.4224714605        0.6973809478
H                0.0000000000        0.5775285095        0.3026190522
H                0.5000000000        0.5775407305        0.1973793729
H                0.5000000000        0.4224592395        0.8026206271
H                0.8275381267        0.7500000003        0.9473679075
H                0.1724618433        0.2499999997        0.0526320925
H                0.6724697559        0.2499999996        0.4473907192
H                0.3275302741        0.7500000004        0.5526092808
H                0.6724697559        0.7500000004        0.5526092808
H                0.3275302741        0.2499999996        0.4473907192
H                0.8275381267        0.2499999997        0.0526320925
H                0.1724618433        0.7500000003        0.9473679075
H                0.5000000000        0.9224592697        0.1973793730
H                0.5000000000        0.0775407603        0.8026206270
H                0.0000000000        0.0775285390        0.6973809481
H                0.0000000000        0.9224714910        0.3026190519



     Writing config-only to output data dir ./iceVIII/iceVIII.save/ :
     XML data file
     NEW-OLD atomic charge density approx. for the potential

     total cpu time spent up to now is      131.7 secs

     per-process dynamical memory:    22.9 Mb

     Self-consistent Calculation

     iteration #  1     ecut=    90.00 Ry     beta= 0.70
     Davidson diagonalization with overlap
     ethr =  1.00E-06,  avg # of iterations =  2.0

     Threshold (ethr) on eigenvalues was too large:
     Diagonalizing with lowered threshold

     Davidson diagonalization with overlap
     ethr =  3.03E-09,  avg # of iterations =  4.0

     total cpu time spent up to now is      136.4 secs

     total energy              =    -275.89208194 Ry
     estimated scf accuracy    <       0.00000322 Ry

     iteration #  2     ecut=    90.00 Ry     beta= 0.70
     Davidson diagonalization with overlap
     ethr =  5.03E-09,  avg # of iterations =  2.0

     total cpu time spent up to now is      138.3 secs

     total energy              =    -275.89208248 Ry
     estimated scf accuracy    <       0.00000034 Ry

     iteration #  3     ecut=    90.00 Ry     beta= 0.70
     Davidson diagonalization with overlap
     ethr =  5.34E-10,  avg # of iterations =  2.0

     total cpu time spent up to now is      140.3 secs

     total energy              =    -275.89208256 Ry
     estimated scf accuracy    <       0.00000003 Ry

     iteration #  4     ecut=    90.00 Ry     beta= 0.70
     Davidson diagonalization with overlap
     ethr =  4.49E-11,  avg # of iterations =  2.0

     total cpu time spent up to now is      142.0 secs

     total energy              =    -275.89208256 Ry
     estimated scf accuracy    <          1.8E-09 Ry

     iteration #  5     ecut=    90.00 Ry     beta= 0.70
     Davidson diagonalization with overlap
     ethr =  2.82E-12,  avg # of iterations =  3.1

     total cpu time spent up to now is      144.3 secs

     End of self-consistent calculation

     Number of k-points >= 100: set verbosity='high' to print the bands.

     highest occupied level (ev):     0.2252

!    total energy              =    -275.89208256 Ry
     estimated scf accuracy    <          3.1E-10 Ry

     The total energy is the sum of the following terms:
     one-electron contribution =    -116.64834220 Ry
     hartree contribution      =      86.54673755 Ry
     xc contribution           =     -67.87327699 Ry
     ewald contribution        =    -177.91720092 Ry

     convergence has been achieved in   5 iterations

     Forces acting on atoms (cartesian axes, Ry/au):

     atom    1 type  2   force =     0.00000000   -0.00000000    0.00093973
     atom    2 type  2   force =     0.00000000    0.00000000   -0.00093973
     atom    3 type  2   force =    -0.00000000    0.00000000    0.00089882
     atom    4 type  2   force =    -0.00000000   -0.00000000   -0.00089882
     atom    5 type  2   force =    -0.00000000   -0.00000000    0.00089000
     atom    6 type  2   force =    -0.00000000    0.00000000   -0.00089000
     atom    7 type  2   force =     0.00000000    0.00000000    0.00094356
     atom    8 type  2   force =     0.00000000   -0.00000000   -0.00094356
     atom    9 type  1   force =     0.00000000   -0.00078680    0.00090563
     atom   10 type  1   force =     0.00000000    0.00078680   -0.00090563
     atom   11 type  1   force =     0.00000000    0.00079122    0.00088351
     atom   12 type  1   force =     0.00000000   -0.00079122   -0.00088351
     atom   13 type  1   force =     0.00077709   -0.00000000    0.00088548
     atom   14 type  1   force =    -0.00077709    0.00000000   -0.00088548
     atom   15 type  1   force =    -0.00079916    0.00000000    0.00090207
     atom   16 type  1   force =     0.00079916   -0.00000000   -0.00090207
     atom   17 type  1   force =    -0.00079916   -0.00000000   -0.00090207
     atom   18 type  1   force =     0.00079916    0.00000000    0.00090207
     atom   19 type  1   force =     0.00077709    0.00000000   -0.00088548
     atom   20 type  1   force =    -0.00077709   -0.00000000    0.00088548
     atom   21 type  1   force =     0.00000000   -0.00079123    0.00088351
     atom   22 type  1   force =     0.00000000    0.00079123   -0.00088351
     atom   23 type  1   force =     0.00000000    0.00078680    0.00090563
     atom   24 type  1   force =     0.00000000   -0.00078680   -0.00090563

     Total force =     0.005431     Total SCF correction =     0.000007


     Computing stress (Cartesian axis) and pressure

          total   stress  (Ry/bohr**3)                   (kbar)     P=       32.44
   0.00021854   0.00000000   0.00000000           32.15        0.00        0.00
   0.00000000   0.00021877   0.00000000            0.00       32.18        0.00
   0.00000000   0.00000000   0.00022422            0.00        0.00       32.98

     Energy error            =      3.5E-05 Ry
     Gradient error          =      9.4E-04 Ry/Bohr

     number of scf cycles    =   8
     number of bfgs steps    =   7

     energy             old  =    -275.8920477012 Ry
     energy             new  =    -275.8920825591 Ry

     CASE: energy            _new < energy            _old

     new trust radius        =       0.0028326020 bohr
     new conv_thr            =       0.0000000010 Ry


ATOMIC_POSITIONS (crystal)
O                0.0000000000        0.2500000007        0.6076143881
O                0.0000000000        0.7499999993        0.3923856409
O                0.5000000000        0.7499999997        0.1075902121
O                0.5000000000        0.2500000003        0.8924097589
O                0.0000000000        0.7500000003        0.8575842837
O                0.0000000000        0.2499999997        0.1424157453
O                0.5000000000        0.2499999997        0.3576181163
O                0.5000000000        0.7500000003        0.6423818547
H                0.0000000000        0.4225054362        0.6976036661
H                0.0000000000        0.5774945338        0.3023963339
H                0.5000000000        0.5775110322        0.1975979923
H                0.5000000000        0.4224889378        0.8024020077
H                0.8275065006        0.7500000003        0.9475843001
H                0.1724934694        0.2499999997        0.0524156999
H                0.6725019714        0.2499999996        0.4476149450
H                0.3274980586        0.7500000004        0.5523850550
H                0.6725019714        0.7500000004        0.5523850550
H                0.3274980586        0.2499999996        0.4476149450
H                0.8275065006        0.2499999997        0.0524156999
H                0.1724934694        0.7500000003        0.9475843001
H                0.5000000000        0.9224889683        0.1975979926
H                0.5000000000        0.0775110617        0.8024020074
H                0.0000000000        0.0774945628        0.6976036667
H                0.0000000000        0.9225054672        0.3023963333



     Writing config-only to output data dir ./iceVIII/iceVIII.save/ :
     XML data file
     NEW-OLD atomic charge density approx. for the potential

     total cpu time spent up to now is      146.0 secs

     per-process dynamical memory:    22.9 Mb

     Self-consistent Calculation

     iteration #  1     ecut=    90.00 Ry     beta= 0.70
     Davidson diagonalization with overlap
     ethr =  1.00E-06,  avg # of iterations =  2.0

     Threshold (ethr) on eigenvalues was too large:
     Diagonalizing with lowered threshold

     Davidson diagonalization with overlap
     ethr =  6.63E-09,  avg # of iterations =  4.1

     total cpu time spent up to now is      150.8 secs

     total energy              =    -275.89213329 Ry
     estimated scf accuracy    <       0.00000701 Ry

     iteration #  2     ecut=    90.00 Ry     beta= 0.70
     Davidson diagonalization with overlap
     ethr =  1.09E-08,  avg # of iterations =  2.0

     total cpu time spent up to now is      152.7 secs

     total energy              =    -275.89213438 Ry
     estimated scf accuracy    <       0.00000057 Ry

     iteration #  3     ecut=    90.00 Ry     beta= 0.70
     Davidson diagonalization with overlap
     ethr =  8.84E-10,  avg # of iterations =  2.0

     total cpu time spent up to now is      154.7 secs

     total energy              =    -275.89213449 Ry
     estimated scf accuracy    <       0.00000006 Ry

     iteration #  4     ecut=    90.00 Ry     beta= 0.70
     Davidson diagonalization with overlap
     ethr =  1.01E-10,  avg # of iterations =  2.0

     total cpu time spent up to now is      156.4 secs

     total energy              =    -275.89213450 Ry
     estimated scf accuracy    <          2.5E-09 Ry

     iteration #  5     ecut=    90.00 Ry     beta= 0.70
     Davidson diagonalization with overlap
     ethr =  3.86E-12,  avg # of iterations =  3.8

     total cpu time spent up to now is      158.8 secs

     End of self-consistent calculation

     Number of k-points >= 100: set verbosity='high' to print the bands.

     highest occupied level (ev):     0.2267

!    total energy              =    -275.89213450 Ry
     estimated scf accuracy    <          5.0E-10 Ry

     The total energy is the sum of the following terms:
     one-electron contribution =    -116.59989998 Ry
     hartree contribution      =      86.52382559 Ry
     xc contribution           =     -67.87066381 Ry
     ewald contribution        =    -177.94539630 Ry

     convergence has been achieved in   5 iterations

     Forces acting on atoms (cartesian axes, Ry/au):

     atom    1 type  2   force =     0.00000000   -0.00000001    0.00114409
     atom    2 type  2   force =     0.00000000    0.00000001   -0.00114409
     atom    3 type  2   force =    -0.00000000    0.00000001    0.00110042
     atom    4 type  2   force =    -0.00000000   -0.00000001   -0.00110042
     atom    5 type  2   force =     0.00000000    0.00000000    0.00108332
     atom    6 type  2   force =     0.00000000   -0.00000000   -0.00108332
     atom    7 type  2   force =     0.00000000   -0.00000000    0.00115383
     atom    8 type  2   force =     0.00000000    0.00000000   -0.00115383
     atom    9 type  1   force =     0.00000000   -0.00101637    0.00072421
     atom   10 type  1   force =     0.00000000    0.00101637   -0.00072421
     atom   11 type  1   force =     0.00000000    0.00101230    0.00069856
     atom   12 type  1   force =     0.00000000   -0.00101230   -0.00069856
     atom   13 type  1   force =     0.00099534   -0.00000000    0.00070970
     atom   14 type  1   force =    -0.00099534    0.00000000   -0.00070970
     atom   15 type  1   force =    -0.00103101    0.00000000    0.00071283
     atom   16 type  1   force =     0.00103101   -0.00000000   -0.00071283
     atom   17 type  1   force =    -0.00103101   -0.00000000   -0.00071283
     atom   18 type  1   force =     0.00103101    0.00000000    0.00071283
     atom   19 type  1   force =     0.00099534    0.00000000   -0.00070970
     atom   20 type  1   force =    -0.00099534   -0.00000000    0.00070970
     atom   21 type  1   force =     0.00000000   -0.00101230    0.00069855
     atom   22 type  1   force =     0.00000000    0.00101230   -0.00069855
     atom   23 type  1   force =     0.00000000    0.00101638    0.00072420
     atom   24 type  1   force =     0.00000000   -0.00101638   -0.00072420

     Total force =     0.005882     Total SCF correction =     0.000006


     Computing stress (Cartesian axis) and pressure

          total   stress  (Ry/bohr**3)                   (kbar)     P=       31.88
   0.00021491   0.00000000   0.00000000           31.61        0.00        0.00
   0.00000000   0.00021514   0.00000000            0.00       31.65        0.00
   0.00000000   0.00000000   0.00022020            0.00        0.00       32.39

     Energy error            =      5.2E-05 Ry
     Gradient error          =      1.2E-03 Ry/Bohr

     number of scf cycles    =   9
     number of bfgs steps    =   8

     energy             old  =    -275.8920825591 Ry
     energy             new  =    -275.8921344990 Ry

     CASE: energy            _new < energy            _old

     new trust radius        =       0.0042489029 bohr
     new conv_thr            =       0.0000000010 Ry


ATOMIC_POSITIONS (crystal)
O                0.0000000000        0.2500000001        0.6079199760
O                0.0000000000        0.7499999999        0.3920800530
O                0.5000000000        0.7499999999        0.1078843251
O                0.5000000000        0.2500000001        0.8921156459
O                0.0000000000        0.7500000001        0.8578793613
O                0.0000000000        0.2499999999        0.1421206677
O                0.5000000000        0.2499999999        0.3579220190
O                0.5000000000        0.7500000001        0.6420779520
H                0.0000000000        0.4225257960        0.6979397972
H                0.0000000000        0.5774741740        0.3020602028
H                0.5000000000        0.5774962881        0.1979273459
H                0.5000000000        0.4225036819        0.8020726541
H                0.8274885894        0.7500000004        0.9479109885
H                0.1725113806        0.2499999996        0.0520890115
H                0.6725194496        0.2499999996        0.4479527312
H                0.3274805804        0.7500000004        0.5520472688
H                0.6725194496        0.7500000004        0.5520472688
H                0.3274805804        0.2499999996        0.4479527312
H                0.8274885894        0.2499999996        0.0520890115
H                0.1725113806        0.7500000004        0.9479109885
H                0.5000000000        0.9225037120        0.1979273460
H                0.5000000000        0.0774963180        0.8020726540
H                0.0000000000        0.0774742036        0.6979397975
H                0.0000000000        0.9225258264        0.3020602025



     Writing config-only to output data dir ./iceVIII/iceVIII.save/ :
     XML data file
     NEW-OLD atomic charge density approx. for the potential

     total cpu time spent up to now is      160.6 secs

     per-process dynamical memory:    22.9 Mb

     Self-consistent Calculation

     iteration #  1     ecut=    90.00 Ry     beta= 0.70
     Davidson diagonalization with overlap
     ethr =  1.00E-06,  avg # of iterations =  3.0

     Threshold (ethr) on eigenvalues was too large:
     Diagonalizing with lowered threshold

     Davidson diagonalization with overlap
     ethr =  1.66E-08,  avg # of iterations =  4.0

     total cpu time spent up to now is      165.4 secs

     total energy              =    -275.89220643 Ry
     estimated scf accuracy    <       0.00001531 Ry

     iteration #  2     ecut=    90.00 Ry     beta= 0.70
     Davidson diagonalization with overlap
     ethr =  2.39E-08,  avg # of iterations =  2.0

     total cpu time spent up to now is      167.2 secs

     total energy              =    -275.89220873 Ry
     estimated scf accuracy    <       0.00000090 Ry

     iteration #  3     ecut=    90.00 Ry     beta= 0.70
     Davidson diagonalization with overlap
     ethr =  1.40E-09,  avg # of iterations =  2.0

     total cpu time spent up to now is      169.0 secs

     total energy              =    -275.89220886 Ry
     estimated scf accuracy    <       0.00000008 Ry

     iteration #  4     ecut=    90.00 Ry     beta= 0.70
     Davidson diagonalization with overlap
     ethr =  1.26E-10,  avg # of iterations =  2.2

     total cpu time spent up to now is      171.1 secs

     total energy              =    -275.89220888 Ry
     estimated scf accuracy    <          6.4E-09 Ry

     iteration #  5     ecut=    90.00 Ry     beta= 0.70
     Davidson diagonalization with overlap
     ethr =  1.00E-11,  avg # of iterations =  2.5

     total cpu time spent up to now is      173.0 secs

     End of self-consistent calculation

     Number of k-points >= 100: set verbosity='high' to print the bands.

     highest occupied level (ev):     0.2288

!    total energy              =    -275.89220888 Ry
     estimated scf accuracy    <          1.9E-10 Ry

     The total energy is the sum of the following terms:
     one-electron contribution =    -116.54066930 Ry
     hartree contribution      =      86.49522961 Ry
     xc contribution           =     -67.86811498 Ry
     ewald contribution        =    -177.97865421 Ry

     convergence has been achieved in   5 iterations

     Forces acting on atoms (cartesian axes, Ry/au):

     atom    1 type  2   force =     0.00000000   -0.00000000    0.00129739
     atom    2 type  2   force =     0.00000000    0.00000000   -0.00129739
     atom    3 type  2   force =     0.00000000    0.00000000    0.00125287
     atom    4 type  2   force =     0.00000000   -0.00000000   -0.00125287
     atom    5 type  2   force =     0.00000000    0.00000000    0.00123566
     atom    6 type  2   force =     0.00000000   -0.00000000   -0.00123566
     atom    7 type  2   force =     0.00000000   -0.00000000    0.00130630
     atom    8 type  2   force =     0.00000000    0.00000000   -0.00130630
     atom    9 type  1   force =     0.00000000   -0.00119852    0.00052613
     atom   10 type  1   force =     0.00000000    0.00119852   -0.00052613
     atom   11 type  1   force =     0.00000000    0.00118576    0.00049377
     atom   12 type  1   force =     0.00000000   -0.00118576   -0.00049377
     atom   13 type  1   force =     0.00117001   -0.00000000    0.00051344
     atom   14 type  1   force =    -0.00117001    0.00000000   -0.00051344
     atom   15 type  1   force =    -0.00121240    0.00000000    0.00050699
     atom   16 type  1   force =     0.00121240   -0.00000000   -0.00050699
     atom   17 type  1   force =    -0.00121240   -0.00000000   -0.00050699
     atom   18 type  1   force =     0.00121240    0.00000000    0.00050699
     atom   19 type  1   force =     0.00117001    0.00000000   -0.00051344
     atom   20 type  1   force =    -0.00117001   -0.00000000    0.00051344
     atom   21 type  1   force =     0.00000000   -0.00118576    0.00049377
     atom   22 type  1   force =     0.00000000    0.00118576   -0.00049377
     atom   23 type  1   force =     0.00000000    0.00119853    0.00052613
     atom   24 type  1   force =     0.00000000   -0.00119853   -0.00052613

     Total force =     0.006314     Total SCF correction =     0.000017


     Computing stress (Cartesian axis) and pressure

          total   stress  (Ry/bohr**3)                   (kbar)     P=       31.33
   0.00021141   0.00000000   0.00000000           31.10        0.00        0.00
   0.00000000   0.00021164   0.00000000            0.00       31.13        0.00
   0.00000000   0.00000000   0.00021581            0.00        0.00       31.75

     Energy error            =      7.4E-05 Ry
     Gradient error          =      1.3E-03 Ry/Bohr

     number of scf cycles    =  10
     number of bfgs steps    =   9

     energy             old  =    -275.8921344990 Ry
     energy             new  =    -275.8922088803 Ry

     CASE: energy            _new < energy            _old

     new trust radius        =       0.0063733544 bohr
     new conv_thr            =       0.0000000010 Ry


ATOMIC_POSITIONS (crystal)
O                0.0000000000        0.2500000015        0.6083805364
O                0.0000000000        0.7499999985        0.3916194926
O                0.5000000000        0.7499999994        0.1083272400
O                0.5000000000        0.2500000006        0.8916727310
O                0.0000000000        0.7499999997        0.8583242601
O                0.0000000000        0.2500000003        0.1416757689
O                0.5000000000        0.2500000002        0.3583794684
O                0.5000000000        0.7499999998        0.6416205026
H                0.0000000000        0.4225249614        0.6984450255
H                0.0000000000        0.5774750086        0.3015549745
H                0.5000000000        0.5775045707        0.1984212447
H                0.5000000000        0.4224953993        0.8015787553
H                0.8274924538        0.7500000004        0.9484016139
H                0.1725075162        0.2499999996        0.0515983861
H                0.6725145019        0.2499999996        0.4484597250
H                0.3274855281        0.7500000004        0.5515402750
H                0.6725145019        0.7500000004        0.5515402750
H                0.3274855281        0.2499999996        0.4484597250
H                0.8274924538        0.2499999996        0.0515983861
H                0.1725075162        0.7500000004        0.9484016139
H                0.5000000000        0.9224954298        0.1984212450
H                0.5000000000        0.0775046002        0.8015787550
H                0.0000000000        0.0774750373        0.6984450263
H                0.0000000000        0.9225249927        0.3015549737



     Writing config-only to output data dir ./iceVIII/iceVIII.save/ :
     XML data file
     NEW-OLD atomic charge density approx. for the potential

     total cpu time spent up to now is      174.7 secs

     per-process dynamical memory:    22.9 Mb

[...]
     atom    5 type  2   force =     0.00000000    0.00000000    0.00028204
     atom    6 type  2   force =     0.00000000   -0.00000000   -0.00028204
     atom    7 type  2   force =    -0.00000000   -0.00000000    0.00022678
     atom    8 type  2   force =    -0.00000000    0.00000000   -0.00022678
     atom    9 type  1   force =     0.00000000   -0.00029620   -0.00013401
     atom   10 type  1   force =     0.00000000    0.00029620    0.00013401
     atom   11 type  1   force =     0.00000000    0.00025944   -0.00017546
     atom   12 type  1   force =     0.00000000   -0.00025944    0.00017546
     atom   13 type  1   force =     0.00026854   -0.00000000   -0.00011629
     atom   14 type  1   force =    -0.00026854    0.00000000    0.00011629
     atom   15 type  1   force =    -0.00028782    0.00000000   -0.00018998
     atom   16 type  1   force =     0.00028782   -0.00000000    0.00018998
     atom   17 type  1   force =    -0.00028782   -0.00000000    0.00018998
     atom   18 type  1   force =     0.00028782    0.00000000   -0.00018998
     atom   19 type  1   force =     0.00026854    0.00000000    0.00011629
     atom   20 type  1   force =    -0.00026854   -0.00000000   -0.00011629
     atom   21 type  1   force =     0.00000000   -0.00025947   -0.00017549
     atom   22 type  1   force =     0.00000000    0.00025947    0.00017549
     atom   23 type  1   force =     0.00000000    0.00029628   -0.00013407
     atom   24 type  1   force =     0.00000000   -0.00029628    0.00013407

     Total force =     0.001468     Total SCF correction =     0.000012


     Computing stress (Cartesian axis) and pressure

          total   stress  (Ry/bohr**3)                   (kbar)     P=       31.31
   0.00021531   0.00000000   0.00000000           31.67        0.00        0.00
   0.00000000   0.00021556   0.00000000            0.00       31.71        0.00
   0.00000000   0.00000000   0.00020756            0.00        0.00       30.53

     Energy error            =      2.2E-06 Ry
     Gradient error          =      3.0E-04 Ry/Bohr

     number of scf cycles    =  15
     number of bfgs steps    =  14

     energy             old  =    -275.8925689717 Ry
     energy             new  =    -275.8925711898 Ry

     CASE: energy            _new < energy            _old

     new trust radius        =       0.0004737655 bohr
     new conv_thr            =       0.0000000010 Ry


ATOMIC_POSITIONS (crystal)
O                0.0000000000        0.2499999979        0.6107796234
O                0.0000000000        0.7500000021        0.3892204056
O                0.5000000000        0.7500000007        0.1106344901
O                0.5000000000        0.2499999993        0.8893654809
O                0.0000000000        0.7499999992        0.8606541852
O                0.0000000000        0.2500000008        0.1393458438
O                0.5000000000        0.2500000006        0.3607495122
O                0.5000000000        0.7499999994        0.6392504588
H                0.0000000000        0.4221968630        0.7010599070
H                0.0000000000        0.5778031070        0.2989400930
H                0.5000000000        0.5778435063        0.2009527679
H                0.5000000000        0.4221564637        0.7990472321
H                0.8278150444        0.7500000002        0.9509420770
H                0.1721849256        0.2499999998        0.0490579230
H                0.6721706190        0.2500000000        0.4510590530
H                0.3278294110        0.7500000000        0.5489409470
H                0.6721706190        0.7500000000        0.5489409470
H                0.3278294110        0.2500000000        0.4510590530
H                0.8278150444        0.2499999998        0.0490579230
H                0.1721849256        0.7500000002        0.9509420770
H                0.5000000000        0.9221564924        0.2009527675
H                0.5000000000        0.0778435376        0.7990472325
H                0.0000000000        0.0778031400        0.7010599058
H                0.0000000000        0.9221968900        0.2989400942



     Writing config-only to output data dir ./iceVIII/iceVIII.save/ :
     XML data file
     NEW-OLD atomic charge density approx. for the potential

     total cpu time spent up to now is      250.4 secs

     per-process dynamical memory:    23.3 Mb

     Self-consistent Calculation

     iteration #  1     ecut=    90.00 Ry     beta= 0.70
     Davidson diagonalization with overlap
     ethr =  1.00E-06,  avg # of iterations =  2.0

     Threshold (ethr) on eigenvalues was too large:
     Diagonalizing with lowered threshold

     Davidson diagonalization with overlap
     ethr =  1.63E-10,  avg # of iterations =  4.0

     total cpu time spent up to now is      255.1 secs

     total energy              =    -275.89257201 Ry
     estimated scf accuracy    <       0.00000018 Ry

     iteration #  2     ecut=    90.00 Ry     beta= 0.70
     Davidson diagonalization with overlap
     ethr =  2.77E-10,  avg # of iterations =  2.0

     total cpu time spent up to now is      257.0 secs

     total energy              =    -275.89257204 Ry
     estimated scf accuracy    <       0.00000003 Ry

     iteration #  3     ecut=    90.00 Ry     beta= 0.70
     Davidson diagonalization with overlap
     ethr =  3.95E-11,  avg # of iterations =  2.0

     total cpu time spent up to now is      258.9 secs

     total energy              =    -275.89257205 Ry
     estimated scf accuracy    <          1.3E-09 Ry

     iteration #  4     ecut=    90.00 Ry     beta= 0.70
     Davidson diagonalization with overlap
     ethr =  2.04E-12,  avg # of iterations =  2.0

     total cpu time spent up to now is      260.7 secs

     End of self-consistent calculation

     Number of k-points >= 100: set verbosity='high' to print the bands.

     highest occupied level (ev):     0.2439

!    total energy              =    -275.89257205 Ry
     estimated scf accuracy    <          1.8E-10 Ry

     The total energy is the sum of the following terms:
     one-electron contribution =    -116.26428977 Ry
     hartree contribution      =      86.35255874 Ry
     xc contribution           =     -67.86913647 Ry
     ewald contribution        =    -178.11170455 Ry

     convergence has been achieved in   4 iterations

     Forces acting on atoms (cartesian axes, Ry/au):

     atom    1 type  2   force =     0.00000000    0.00000004    0.00015836
     atom    2 type  2   force =     0.00000000   -0.00000004   -0.00015836
     atom    3 type  2   force =     0.00000000   -0.00000001    0.00014505
     atom    4 type  2   force =     0.00000000    0.00000001   -0.00014505
     atom    5 type  2   force =     0.00000000   -0.00000000    0.00018009
     atom    6 type  2   force =     0.00000000    0.00000000   -0.00018009
     atom    7 type  2   force =     0.00000000    0.00000000    0.00012384
     atom    8 type  2   force =     0.00000000   -0.00000000   -0.00012384
     atom    9 type  1   force =     0.00000000   -0.00017278   -0.00007160
     atom   10 type  1   force =     0.00000000    0.00017278    0.00007160
     atom   11 type  1   force =     0.00000000    0.00014594   -0.00010833
     atom   12 type  1   force =     0.00000000   -0.00014594    0.00010833
     atom   13 type  1   force =     0.00015337   -0.00000000   -0.00005386
     atom   14 type  1   force =    -0.00015337    0.00000000    0.00005386
     atom   15 type  1   force =    -0.00016567   -0.00000000   -0.00012301
     atom   16 type  1   force =     0.00016567    0.00000000    0.00012301
     atom   17 type  1   force =    -0.00016567    0.00000000    0.00012301
     atom   18 type  1   force =     0.00016567   -0.00000000   -0.00012301
     atom   19 type  1   force =     0.00015337    0.00000000    0.00005386
     atom   20 type  1   force =    -0.00015337   -0.00000000   -0.00005386
     atom   21 type  1   force =     0.00000000   -0.00014593   -0.00010832
     atom   22 type  1   force =     0.00000000    0.00014593    0.00010832
     atom   23 type  1   force =     0.00000000    0.00017274   -0.00007157
     atom   24 type  1   force =     0.00000000   -0.00017274    0.00007157

     Total force =     0.000858     Total SCF correction =     0.000009


     Computing stress (Cartesian axis) and pressure

          total   stress  (Ry/bohr**3)                   (kbar)     P=       31.55
   0.00021700   0.00000000   0.00000000           31.92        0.00        0.00
   0.00000000   0.00021724  -0.00000000            0.00       31.96       -0.00
   0.00000000  -0.00000000   0.00020910            0.00       -0.00       30.76

     Energy error            =      8.6E-07 Ry
     Gradient error          =      1.8E-04 Ry/Bohr

     number of scf cycles    =  16
     number of bfgs steps    =  15

     energy             old  =    -275.8925711898 Ry
     energy             new  =    -275.8925720492 Ry

     CASE: energy            _new < energy            _old

     new trust radius        =       0.0005716256 bohr
     new conv_thr            =       0.0000000010 Ry


ATOMIC_POSITIONS (crystal)
O                0.0000000000        0.2500000113        0.6107516595
O                0.0000000000        0.7499999887        0.3892483695
O                0.5000000000        0.7499999958        0.1106054347
O                0.5000000000        0.2500000042        0.8893945363
O                0.0000000000        0.7499999985        0.8606322505
O                0.0000000000        0.2500000015        0.1393677785
O                0.5000000000        0.2500000011        0.3607147254
O                0.5000000000        0.7499999989        0.6392852456
H                0.0000000000        0.4221642754        0.7010290052
H                0.0000000000        0.5778356946        0.2989709948
H                0.5000000000        0.5778685684        0.2009156268
H                0.5000000000        0.4221314016        0.7990843732
H                0.8278428476        0.7500000001        0.9509150787
H                0.1721571224        0.2499999999        0.0490849213
H                0.6721406048        0.2500000000        0.4510186216
H                0.3278594252        0.7500000000        0.5489813784
H                0.6721406048        0.7500000000        0.5489813784
H                0.3278594252        0.2500000000        0.4510186216
H                0.8278428476        0.2499999999        0.0490849213
H                0.1721571224        0.7500000001        0.9509150787
H                0.5000000000        0.9221314346        0.2009156286
H                0.5000000000        0.0778685954        0.7990843714
H                0.0000000000        0.0778357155        0.7010290101
H                0.0000000000        0.9221643145        0.2989709899



     Writing config-only to output data dir ./iceVIII/iceVIII.save/ :
     XML data file
     NEW-OLD atomic charge density approx. for the potential

     total cpu time spent up to now is      262.5 secs

     per-process dynamical memory:    23.3 Mb

     Self-consistent Calculation

     iteration #  1     ecut=    90.00 Ry     beta= 0.70
     Davidson diagonalization with overlap
     ethr =  1.00E-06,  avg # of iterations =  2.0

     Threshold (ethr) on eigenvalues was too large:
     Diagonalizing with lowered threshold

     Davidson diagonalization with overlap
     ethr =  2.43E-10,  avg # of iterations =  4.1

     total cpu time spent up to now is      267.2 secs

     total energy              =    -275.89257243 Ry
     estimated scf accuracy    <       0.00000025 Ry

     iteration #  2     ecut=    90.00 Ry     beta= 0.70
     Davidson diagonalization with overlap
     ethr =  3.83E-10,  avg # of iterations =  2.0

     total cpu time spent up to now is      269.3 secs

     total energy              =    -275.89257249 Ry
     estimated scf accuracy    <       0.00000004 Ry

     iteration #  3     ecut=    90.00 Ry     beta= 0.70
     Davidson diagonalization with overlap
     ethr =  6.86E-11,  avg # of iterations =  2.0

     total cpu time spent up to now is      271.2 secs

     total energy              =    -275.89257249 Ry
     estimated scf accuracy    <          1.7E-09 Ry

     iteration #  4     ecut=    90.00 Ry     beta= 0.70
     Davidson diagonalization with overlap
     ethr =  2.72E-12,  avg # of iterations =  3.4

     total cpu time spent up to now is      273.4 secs

     End of self-consistent calculation

     Number of k-points >= 100: set verbosity='high' to print the bands.

     highest occupied level (ev):     0.2434

!    total energy              =    -275.89257249 Ry
     estimated scf accuracy    <          6.4E-10 Ry

     The total energy is the sum of the following terms:
     one-electron contribution =    -116.28150071 Ry
     hartree contribution      =      86.36031236 Ry
     xc contribution           =     -67.87070614 Ry
     ewald contribution        =    -178.10067801 Ry

     convergence has been achieved in   4 iterations

     Forces acting on atoms (cartesian axes, Ry/au):

     atom    1 type  2   force =     0.00000000   -0.00000019    0.00000011
     atom    2 type  2   force =     0.00000000    0.00000019   -0.00000011
     atom    3 type  2   force =     0.00000000    0.00000007   -0.00001744
     atom    4 type  2   force =     0.00000000   -0.00000007    0.00001744
     atom    5 type  2   force =     0.00000000    0.00000001    0.00002163
     atom    6 type  2   force =     0.00000000   -0.00000001   -0.00002163
     atom    7 type  2   force =    -0.00000000   -0.00000001   -0.00003653
     atom    8 type  2   force =    -0.00000000    0.00000001    0.00003653
     atom    9 type  1   force =     0.00000000    0.00000070    0.00001642
     atom   10 type  1   force =     0.00000000   -0.00000070   -0.00001642
     atom   11 type  1   force =     0.00000000   -0.00000834   -0.00001510
     atom   12 type  1   force =     0.00000000    0.00000834    0.00001510
     atom   13 type  1   force =    -0.00000444    0.00000000    0.00003143
     atom   14 type  1   force =     0.00000444   -0.00000000   -0.00003143
     atom   15 type  1   force =     0.00000389    0.00000000   -0.00002825
     atom   16 type  1   force =    -0.00000389   -0.00000000    0.00002825
     atom   17 type  1   force =     0.00000389   -0.00000000    0.00002825
     atom   18 type  1   force =    -0.00000389    0.00000000   -0.00002825
     atom   19 type  1   force =    -0.00000444   -0.00000000   -0.00003143
     atom   20 type  1   force =     0.00000444    0.00000000    0.00003143
     atom   21 type  1   force =     0.00000000    0.00000828   -0.00001515
     atom   22 type  1   force =     0.00000000   -0.00000828    0.00001515
     atom   23 type  1   force =     0.00000000   -0.00000054    0.00001630
     atom   24 type  1   force =     0.00000000    0.00000054   -0.00001630

     Total force =     0.000117     Total SCF correction =     0.000023
     SCF correction compared to forces is large: reduce conv_thr to get better values


     Computing stress (Cartesian axis) and pressure

          total   stress  (Ry/bohr**3)                   (kbar)     P=       31.90
   0.00021943   0.00000000   0.00000000           32.28        0.00        0.00
   0.00000000   0.00021968   0.00000000            0.00       32.32        0.00
   0.00000000   0.00000000   0.00021137            0.00        0.00       31.09

     Energy error            =      4.5E-07 Ry
     Gradient error          =      3.7E-05 Ry/Bohr

     bfgs converged in  17 scf cycles and  16 bfgs steps
     (criteria: energy <  1.0E-04 Ry, force <  1.0E-04 Ry/Bohr)

     End of BFGS Geometry Optimization

     Final energy             =    -275.8925724946 Ry

     File ./iceVIII/iceVIII.bfgs deleted, as requested
Begin final coordinates

ATOMIC_POSITIONS (crystal)
O                0.0000000000        0.2500000113        0.6107516595
O                0.0000000000        0.7499999887        0.3892483695
O                0.5000000000        0.7499999958        0.1106054347
O                0.5000000000        0.2500000042        0.8893945363
O                0.0000000000        0.7499999985        0.8606322505
O                0.0000000000        0.2500000015        0.1393677785
O                0.5000000000        0.2500000011        0.3607147254
O                0.5000000000        0.7499999989        0.6392852456
H                0.0000000000        0.4221642754        0.7010290052
H                0.0000000000        0.5778356946        0.2989709948
H                0.5000000000        0.5778685684        0.2009156268
H                0.5000000000        0.4221314016        0.7990843732
H                0.8278428476        0.7500000001        0.9509150787
H                0.1721571224        0.2499999999        0.0490849213
H                0.6721406048        0.2500000000        0.4510186216
H                0.3278594252        0.7500000000        0.5489813784
H                0.6721406048        0.7500000000        0.5489813784
H                0.3278594252        0.2500000000        0.4510186216
H                0.8278428476        0.2499999999        0.0490849213
H                0.1721571224        0.7500000001        0.9509150787
H                0.5000000000        0.9221314346        0.2009156286
H                0.5000000000        0.0778685954        0.7990843714
H                0.0000000000        0.0778357155        0.7010290101
H                0.0000000000        0.9221643145        0.2989709899
End final coordinates



     Writing all to output data dir ./iceVIII/iceVIII.save/ :
     XML data file, charge density, pseudopotentials, collected wavefunctions

     init_run     :      1.11s CPU      1.17s WALL (       1 calls)
     electrons    :    238.72s CPU    244.19s WALL (      17 calls)
     update_pot   :      0.13s CPU      0.16s WALL (      16 calls)
     forces       :      2.16s CPU      2.18s WALL (      17 calls)
     stress       :     26.14s CPU     26.17s WALL (      17 calls)

     Called by init_run:
     wfcinit      :      0.86s CPU      0.87s WALL (       1 calls)
     potinit      :      0.01s CPU      0.03s WALL (       1 calls)
     hinit0       :      0.18s CPU      0.20s WALL (       1 calls)

     Called by electrons:
     c_bands      :    212.59s CPU    217.40s WALL (     109 calls)
     sum_band     :     25.06s CPU     25.38s WALL (     109 calls)
     v_of_rho     :      0.77s CPU      0.78s WALL (     116 calls)
     newd         :      0.15s CPU      0.16s WALL (     116 calls)
     mix_rho      :      0.09s CPU      0.09s WALL (     109 calls)

     Called by c_bands:
     init_us_2    :      2.70s CPU      2.81s WALL (    9108 calls)
     cegterg      :    204.60s CPU    207.45s WALL (    3924 calls)

     Called by *egterg:
     cdiaghg      :     24.48s CPU     24.65s WALL (   14276 calls)
     h_psi        :    151.49s CPU    153.96s WALL (   15248 calls)
     s_psi        :      5.74s CPU      5.80s WALL (   15248 calls)
     g_psi        :      0.50s CPU      0.50s WALL (   11288 calls)

     Called by h_psi:
     h_psi:calbec :      7.62s CPU      7.72s WALL (   15248 calls)
     vloc_psi     :    137.14s CPU    139.43s WALL (   15248 calls)
     add_vuspsi   :      6.08s CPU      6.16s WALL (   15248 calls)

     General routines
     calbec       :     11.37s CPU     11.51s WALL (   22232 calls)
     fft          :      0.61s CPU      0.62s WALL (    1438 calls)
     ffts         :      0.04s CPU      0.04s WALL (     109 calls)
     fftw         :    146.26s CPU    148.62s WALL (  923332 calls)

     Parallel routines

     PWSCF        :   4m29.94s CPU   4m36.83s WALL


   This run was terminated on:  18:11:34  31Mar2026            

=------------------------------------------------------------------------------=
   JOB DONE.
=------------------------------------------------------------------------------=
