
     Program PWSCF v.7.3.1 starts on 21Mar2026 at 19:50:43 

     This program is part of the open-source Quantum ESPRESSO suite
     for quantum simulation of materials; please cite
         "P. Giannozzi et al., J. Phys.:Condens. Matter 21 395502 (2009);
         "P. Giannozzi et al., J. Phys.:Condens. Matter 29 465901 (2017);
         "P. Giannozzi et al., J. Chem. Phys. 152 154105 (2020);
          URL http://www.quantum-espresso.org", 
     in publications or presentations arising from this work. More details at
     http://www.quantum-espresso.org/quote

     Parallel version (MPI), running on   128 processors

     MPI processes distributed on     1 nodes
     242330 MiB available memory on the printing compute node when the environment starts

     Waiting for input...
     Reading input from standard input

     Current dimensions of program PWSCF are:
     Max number of different atomic species (ntypx) = 10
     Max number of k-points (npk) =  40000
     Max angular momentum in pseudopotentials (lmaxx) =  4
     Found identity + ( -0.5000 -0.5000  0.5000) symmetry
     This is a supercell, fractional translations are disabled

     K-points division:     npool     =       4
     R & G space division:  proc/nbgrp/npool/nimage =      32
     Subspace diagonalization in iterative solution of the eigenvalue problem:
     a serial algorithm will be used


     Parallelization info
     --------------------
     sticks:   dense  smooth     PW     G-vecs:    dense   smooth      PW
     Min          68      68     18                 3438     3438     498
     Max          69      69     19                 3443     3443     505
     Sum        2185    2185    593               110091   110091   16023

     Using Slab Decomposition



     bravais-lattice index     =            6
     lattice parameter (alat)  =       8.7163  a.u.
     unit-cell volume          =     955.0306 (a.u.)^3
     number of atoms/cell      =           24
     number of atomic types    =            2
     number of electrons       =        64.00
     number of Kohn-Sham states=           32
     kinetic-energy cutoff     =      90.0000  Ry
     charge density cutoff     =     360.0000  Ry
     scf convergence threshold =      1.0E-07
     mixing beta               =       0.7000
     number of iterations used =            8  plain     mixing
     Exchange-correlation=  SLA  PW   PBE  PBE
                           (   1   4   3   4   0   0   0)

     celldm(1)=   8.716274  celldm(2)=   0.000000  celldm(3)=   1.442197
     celldm(4)=   0.000000  celldm(5)=   0.000000  celldm(6)=   0.000000

     crystal axes: (cart. coord. in units of alat)
               a(1) = (   1.000000   0.000000   0.000000 )  
               a(2) = (   0.000000   1.000000   0.000000 )  
               a(3) = (   0.000000   0.000000   1.442197 )  

     reciprocal axes: (cart. coord. in units 2 pi/alat)
               b(1) = (  1.000000  0.000000  0.000000 )  
               b(2) = (  0.000000  1.000000  0.000000 )  
               b(3) = (  0.000000  0.000000  0.693386 )  


     PseudoPot. # 1 for H  read from file:
     ./H.pbe-van_ak.UPF
     MD5 check sum: 077eb6d537518a38cb46c6de387227b7
     Pseudo is Ultrasoft, Zval =  1.0
     Generated by new atomic code, or converted to UPF format
     Using radial grid of  615 points,  1 beta functions with: 
                l(1) =   0
     Q(r) pseudized with  8 coefficients,  rinner =    0.800

     PseudoPot. # 2 for O  read from file:
     ./O.pbe-van_ak.UPF
     MD5 check sum: 78c19812648e8988a0fe644b0f25305e
     Pseudo is Ultrasoft, Zval =  6.0
     Generated by new atomic code, or converted to UPF format
     Using radial grid of  737 points,  4 beta functions with: 
                l(1) =   0
                l(2) =   0
                l(3) =   1
                l(4) =   1
     Q(r) pseudized with  8 coefficients,  rinner =    0.800   0.800   0.800


     atomic species   valence    mass     pseudopotential
     H                 1.00     1.00800     H ( 1.00)
     O                 6.00    16.00000     O ( 1.00)

      4 Sym. Ops., with inversion, found



   Cartesian axes

     site n.     atom                  positions (alat units)
         1        O      tau(   1) = (   0.0000000   0.2500000   0.8781106  )
         2        O      tau(   2) = (   0.0000000   0.7500000   0.5640866  )
         3        O      tau(   3) = (   0.5000000   0.7500000   0.1570120  )
         4        O      tau(   4) = (   0.5000000   0.2500000   1.2851851  )
         5        O      tau(   5) = (   0.0000000   0.7500000   1.2386599  )
         6        O      tau(   6) = (   0.0000000   0.2500000   0.2035373  )
         7        O      tau(   7) = (   0.5000000   0.2500000   0.5175613  )
         8        O      tau(   8) = (   0.5000000   0.7500000   0.9246358  )
         9        H      tau(   9) = (   0.0000000   0.4142500   1.0027885  )
        10        H      tau(  10) = (   0.0000000   0.5857500   0.4394086  )
        11        H      tau(  11) = (   0.5000000   0.5857500   0.2816900  )
        12        H      tau(  12) = (   0.5000000   0.4142500   1.1605072  )
        13        H      tau(  13) = (   0.8357500   0.7500000   1.3633378  )
        14        H      tau(  14) = (   0.1642500   0.2500000   0.0788593  )
        15        H      tau(  15) = (   0.6642500   0.2500000   0.6422392  )
        16        H      tau(  16) = (   0.3357500   0.7500000   0.7999579  )
        17        H      tau(  17) = (   0.6642500   0.7500000   0.7999579  )
        18        H      tau(  18) = (   0.3357500   0.2500000   0.6422392  )
        19        H      tau(  19) = (   0.8357500   0.2500000   0.0788593  )
        20        H      tau(  20) = (   0.1642500   0.7500000   1.3633378  )
        21        H      tau(  21) = (   0.5000000   0.9142500   0.2816900  )
        22        H      tau(  22) = (   0.5000000   0.0857500   1.1605072  )
        23        H      tau(  23) = (   0.0000000   0.0857500   1.0027885  )
        24        H      tau(  24) = (   0.0000000   0.9142500   0.4394086  )

     number of k points=   144

     Number of k-points >= 100: set verbosity='high' to print them.

     Dense  grid:   110091 G-vectors     FFT dimensions: (  54,  54,  75)

     Estimated max dynamical RAM per process >      12.79 MB

     Estimated total dynamical RAM >       1.52 GB

     Initial potential from superposition of free atoms

     starting charge      63.9998, renormalised to      64.0000
     Starting wfcs are   48 randomized atomic wfcs

     total cpu time spent up to now is        1.4 secs

     per-process dynamical memory:    19.4 Mb

     Self-consistent Calculation

     iteration #  1     ecut=    90.00 Ry     beta= 0.70
     Davidson diagonalization with overlap
     ethr =  1.00E-02,  avg # of iterations =  2.0

     total cpu time spent up to now is        3.4 secs

     total energy              =    -274.77016865 Ry
     estimated scf accuracy    <       2.70721067 Ry

     iteration #  2     ecut=    90.00 Ry     beta= 0.70
     Davidson diagonalization with overlap
     ethr =  4.23E-03,  avg # of iterations =  3.0

     total cpu time spent up to now is        5.9 secs

     total energy              =    -275.64085997 Ry
     estimated scf accuracy    <       1.32851297 Ry

     iteration #  3     ecut=    90.00 Ry     beta= 0.70
     Davidson diagonalization with overlap
     ethr =  2.08E-03,  avg # of iterations =  2.0

     total cpu time spent up to now is        7.7 secs

     total energy              =    -275.79810149 Ry
     estimated scf accuracy    <       0.05588130 Ry

     iteration #  4     ecut=    90.00 Ry     beta= 0.70
     Davidson diagonalization with overlap
     ethr =  8.73E-05,  avg # of iterations =  4.1

     total cpu time spent up to now is       10.5 secs

     total energy              =    -275.83819060 Ry
     estimated scf accuracy    <       0.08028197 Ry

     iteration #  5     ecut=    90.00 Ry     beta= 0.70
     Davidson diagonalization with overlap
     ethr =  8.73E-05,  avg # of iterations =  2.0

     total cpu time spent up to now is       12.4 secs

     total energy              =    -275.83990914 Ry
     estimated scf accuracy    <       0.01221112 Ry

     iteration #  6     ecut=    90.00 Ry     beta= 0.70
     Davidson diagonalization with overlap
     ethr =  1.91E-05,  avg # of iterations =  2.8

     total cpu time spent up to now is       14.5 secs

     total energy              =    -275.84331989 Ry
     estimated scf accuracy    <       0.00006992 Ry

     iteration #  7     ecut=    90.00 Ry     beta= 0.70
     Davidson diagonalization with overlap
     ethr =  1.09E-07,  avg # of iterations =  5.8

     total cpu time spent up to now is       18.0 secs

     total energy              =    -275.84352723 Ry
     estimated scf accuracy    <       0.00022026 Ry

     iteration #  8     ecut=    90.00 Ry     beta= 0.70
     Davidson diagonalization with overlap
     ethr =  1.09E-07,  avg # of iterations =  2.0

     total cpu time spent up to now is       20.1 secs

     total energy              =    -275.84353575 Ry
     estimated scf accuracy    <       0.00002851 Ry

     iteration #  9     ecut=    90.00 Ry     beta= 0.70
     Davidson diagonalization with overlap
     ethr =  4.45E-08,  avg # of iterations =  3.0

     total cpu time spent up to now is       22.3 secs

     total energy              =    -275.84354412 Ry
     estimated scf accuracy    <       0.00000012 Ry

     iteration # 10     ecut=    90.00 Ry     beta= 0.70
     Davidson diagonalization with overlap
     ethr =  1.93E-10,  avg # of iterations =  6.1

     total cpu time spent up to now is       26.1 secs

     total energy              =    -275.84354463 Ry
     estimated scf accuracy    <       0.00000043 Ry

     iteration # 11     ecut=    90.00 Ry     beta= 0.70
     Davidson diagonalization with overlap
     ethr =  1.93E-10,  avg # of iterations =  2.9

     total cpu time spent up to now is       28.3 secs

     End of self-consistent calculation

     Number of k-points >= 100: set verbosity='high' to print the bands.

     highest occupied level (ev):     0.1234

!    total energy              =    -275.84354463 Ry
     estimated scf accuracy    <       0.00000005 Ry

     The total energy is the sum of the following terms:
     one-electron contribution =    -121.92550509 Ry
     hartree contribution      =      88.85623781 Ry
     xc contribution           =     -68.43752683 Ry
     ewald contribution        =    -174.33675052 Ry

     convergence has been achieved in  11 iterations

     Forces acting on atoms (cartesian axes, Ry/au):

     atom    1 type  2   force =     0.00000000   -0.00000001   -0.08498410
     atom    2 type  2   force =     0.00000000    0.00000001    0.08498410
     atom    3 type  2   force =     0.00000000    0.00000000   -0.08518180
     atom    4 type  2   force =     0.00000000   -0.00000000    0.08518180
     atom    5 type  2   force =     0.00000000    0.00000001   -0.08509903
     atom    6 type  2   force =     0.00000000   -0.00000001    0.08509903
     atom    7 type  2   force =     0.00000000   -0.00000001   -0.08507680
     atom    8 type  2   force =     0.00000000    0.00000001    0.08507680
     atom    9 type  1   force =     0.00000000    0.06461475    0.04315896
     atom   10 type  1   force =     0.00000000   -0.06461475   -0.04315896
     atom   11 type  1   force =     0.00000000   -0.06461001    0.04317568
     atom   12 type  1   force =     0.00000000    0.06461001   -0.04317568
     atom   13 type  1   force =    -0.06461270   -0.00000000    0.04316586
     atom   14 type  1   force =     0.06461270    0.00000000   -0.04316586
     atom   15 type  1   force =     0.06461225   -0.00000000    0.04317066
     atom   16 type  1   force =    -0.06461225    0.00000000   -0.04317066
     atom   17 type  1   force =     0.06461225    0.00000000   -0.04317066
     atom   18 type  1   force =    -0.06461225   -0.00000000    0.04317066
     atom   19 type  1   force =    -0.06461270    0.00000000   -0.04316586
     atom   20 type  1   force =     0.06461270   -0.00000000    0.04316586
     atom   21 type  1   force =     0.00000000    0.06461002    0.04317568
     atom   22 type  1   force =     0.00000000   -0.06461002   -0.04317568
     atom   23 type  1   force =     0.00000000   -0.06461475    0.04315896
     atom   24 type  1   force =     0.00000000    0.06461475   -0.04315896

     Total force =     0.393100     Total SCF correction =     0.000241


     Computing stress (Cartesian axis) and pressure

          total   stress  (Ry/bohr**3)                   (kbar)     P=      157.49
   0.00105781   0.00000000   0.00000000          155.61        0.00        0.00
   0.00000000   0.00105795   0.00000000            0.00      155.63        0.00
   0.00000000   0.00000000   0.00109611            0.00        0.00      161.24


     Writing all to output data dir ./iceVIII/iceVIII.save/ :
     XML data file, charge density, pseudopotentials, collected wavefunctions

     init_run     :      1.07s CPU      1.17s WALL (       1 calls)
     electrons    :     26.40s CPU     26.90s WALL (       1 calls)
     forces       :      0.13s CPU      0.14s WALL (       1 calls)
     stress       :      1.55s CPU      1.57s WALL (       1 calls)

     Called by init_run:
     wfcinit      :      0.85s CPU      0.87s WALL (       1 calls)
     potinit      :      0.01s CPU      0.03s WALL (       1 calls)
     hinit0       :      0.17s CPU      0.20s WALL (       1 calls)

     Called by electrons:
     c_bands      :     23.75s CPU     24.17s WALL (      11 calls)
     sum_band     :      2.51s CPU      2.56s WALL (      11 calls)
     v_of_rho     :      0.08s CPU      0.09s WALL (      12 calls)
     newd         :      0.01s CPU      0.02s WALL (      12 calls)
     mix_rho      :      0.02s CPU      0.02s WALL (      11 calls)

     Called by c_bands:
     init_us_2    :      0.28s CPU      0.28s WALL (     900 calls)
     cegterg      :     22.49s CPU     22.74s WALL (     396 calls)

     Called by *egterg:
     cdiaghg      :      2.89s CPU      2.91s WALL (    1682 calls)
     h_psi        :     17.00s CPU     17.23s WALL (    1718 calls)
     s_psi        :      0.64s CPU      0.64s WALL (    1718 calls)
     g_psi        :      0.06s CPU      0.06s WALL (    1286 calls)

     Called by h_psi:
     h_psi:calbec :      0.86s CPU      0.87s WALL (    1718 calls)
     vloc_psi     :     15.38s CPU     15.59s WALL (    1718 calls)
     add_vuspsi   :      0.68s CPU      0.68s WALL (    1718 calls)

     General routines
     calbec       :      1.17s CPU      1.19s WALL (    2294 calls)
     fft          :      0.20s CPU      0.22s WALL (     140 calls)
     ffts         :      0.00s CPU      0.00s WALL (      11 calls)
     fftw         :     16.22s CPU     16.45s WALL (  102508 calls)

     Parallel routines

     PWSCF        :     29.94s CPU     31.32s WALL


   This run was terminated on:  19:51:14  21Mar2026            

=------------------------------------------------------------------------------=
   JOB DONE.
=------------------------------------------------------------------------------=
