
     Program PWSCF v.7.3.1 starts on 23Mar2026 at 18: 3:59 

     This program is part of the open-source Quantum ESPRESSO suite
     for quantum simulation of materials; please cite
         "P. Giannozzi et al., J. Phys.:Condens. Matter 21 395502 (2009);
         "P. Giannozzi et al., J. Phys.:Condens. Matter 29 465901 (2017);
         "P. Giannozzi et al., J. Chem. Phys. 152 154105 (2020);
          URL http://www.quantum-espresso.org", 
     in publications or presentations arising from this work. More details at
     http://www.quantum-espresso.org/quote

     Parallel version (MPI), running on   128 processors

     MPI processes distributed on     1 nodes
     242426 MiB available memory on the printing compute node when the environment starts

     Waiting for input...
     Reading input from standard input

     Current dimensions of program PWSCF are:
     Max number of different atomic species (ntypx) = 10
     Max number of k-points (npk) =  40000
     Max angular momentum in pseudopotentials (lmaxx) =  4
     Found identity + ( -0.5000 -0.5000  0.5000) symmetry
     This is a supercell, fractional translations are disabled

     K-points division:     npool     =       4
     R & G space division:  proc/nbgrp/npool/nimage =      32
     Subspace diagonalization in iterative solution of the eigenvalue problem:
     a serial algorithm will be used


     Parallelization info
     --------------------
     sticks:   dense  smooth     PW     G-vecs:    dense   smooth      PW
     Min          68      68     18                 3462     3462     500
     Max          69      69     19                 3469     3469     509
     Sum        2185    2185    593               110853   110853   16121

     Using Slab Decomposition



     bravais-lattice index     =            6
     lattice parameter (alat)  =       8.7340  a.u.
     unit-cell volume          =     960.8777 (a.u.)^3
     number of atoms/cell      =           24
     number of atomic types    =            2
     number of electrons       =        64.00
     number of Kohn-Sham states=           32
     kinetic-energy cutoff     =      90.0000  Ry
     charge density cutoff     =     360.0000  Ry
     scf convergence threshold =      1.0E-07
     mixing beta               =       0.7000
     number of iterations used =            8  plain     mixing
     Exchange-correlation=  SLA  PW   PBE  PBE
                           (   1   4   3   4   0   0   0)

     celldm(1)=   8.734026  celldm(2)=   0.000000  celldm(3)=   1.442197
     celldm(4)=   0.000000  celldm(5)=   0.000000  celldm(6)=   0.000000

     crystal axes: (cart. coord. in units of alat)
               a(1) = (   1.000000   0.000000   0.000000 )  
               a(2) = (   0.000000   1.000000   0.000000 )  
               a(3) = (   0.000000   0.000000   1.442197 )  

     reciprocal axes: (cart. coord. in units 2 pi/alat)
               b(1) = (  1.000000  0.000000  0.000000 )  
               b(2) = (  0.000000  1.000000  0.000000 )  
               b(3) = (  0.000000  0.000000  0.693386 )  


     PseudoPot. # 1 for H  read from file:
     ./H.pbe-van_ak.UPF
     MD5 check sum: 077eb6d537518a38cb46c6de387227b7
     Pseudo is Ultrasoft, Zval =  1.0
     Generated by new atomic code, or converted to UPF format
     Using radial grid of  615 points,  1 beta functions with: 
                l(1) =   0
     Q(r) pseudized with  8 coefficients,  rinner =    0.800

     PseudoPot. # 2 for O  read from file:
     ./O.pbe-van_ak.UPF
     MD5 check sum: 78c19812648e8988a0fe644b0f25305e
     Pseudo is Ultrasoft, Zval =  6.0
     Generated by new atomic code, or converted to UPF format
     Using radial grid of  737 points,  4 beta functions with: 
                l(1) =   0
                l(2) =   0
                l(3) =   1
                l(4) =   1
     Q(r) pseudized with  8 coefficients,  rinner =    0.800   0.800   0.800


     atomic species   valence    mass     pseudopotential
     H                 1.00     1.00800     H ( 1.00)
     O                 6.00    16.00000     O ( 1.00)

      4 Sym. Ops., with inversion, found



   Cartesian axes

     site n.     atom                  positions (alat units)
         1        O      tau(   1) = (   0.0000000   0.2500000   0.8766577  )
         2        O      tau(   2) = (   0.0000000   0.7500000   0.5655395  )
         3        O      tau(   3) = (   0.5000000   0.7500000   0.1555590  )
         4        O      tau(   4) = (   0.5000000   0.2500000   1.2866381  )
         5        O      tau(   5) = (   0.0000000   0.7500000   1.2372108  )
         6        O      tau(   6) = (   0.0000000   0.2500000   0.2049863  )
         7        O      tau(   7) = (   0.5000000   0.2500000   0.5161123  )
         8        O      tau(   8) = (   0.5000000   0.7500000   0.9260848  )
         9        H      tau(   9) = (   0.0000000   0.4186701   1.0041518  )
        10        H      tau(  10) = (   0.0000000   0.5813299   0.4380453  )
        11        H      tau(  11) = (   0.5000000   0.5813299   0.2830532  )
        12        H      tau(  12) = (   0.5000000   0.4186701   1.1591439  )
        13        H      tau(  13) = (   0.8313288   0.7500000   1.3647034  )
        14        H      tau(  14) = (   0.1686712   0.2500000   0.0774938  )
        15        H      tau(  15) = (   0.6686712   0.2500000   0.6436049  )
        16        H      tau(  16) = (   0.3313288   0.7500000   0.7985923  )
        17        H      tau(  17) = (   0.6686712   0.7500000   0.7985923  )
        18        H      tau(  18) = (   0.3313288   0.2500000   0.6436049  )
        19        H      tau(  19) = (   0.8313288   0.2500000   0.0774938  )
        20        H      tau(  20) = (   0.1686712   0.7500000   1.3647034  )
        21        H      tau(  21) = (   0.5000000   0.9186701   0.2830532  )
        22        H      tau(  22) = (   0.5000000   0.0813299   1.1591439  )
        23        H      tau(  23) = (   0.0000000   0.0813299   1.0041518  )
        24        H      tau(  24) = (   0.0000000   0.9186701   0.4380454  )

     number of k points=   144

     Number of k-points >= 100: set verbosity='high' to print them.

     Dense  grid:   110853 G-vectors     FFT dimensions: (  54,  54,  80)

     Estimated max dynamical RAM per process >      12.84 MB

     Estimated total dynamical RAM >       1.53 GB

     Initial potential from superposition of free atoms

     starting charge      63.9998, renormalised to      64.0000
     Starting wfcs are   48 randomized atomic wfcs

     total cpu time spent up to now is        1.5 secs

     per-process dynamical memory:    19.4 Mb

     Self-consistent Calculation

     iteration #  1     ecut=    90.00 Ry     beta= 0.70
     Davidson diagonalization with overlap
     ethr =  1.00E-02,  avg # of iterations =  2.0

     total cpu time spent up to now is        3.5 secs

     total energy              =    -274.86545688 Ry
     estimated scf accuracy    <       2.53863341 Ry

     iteration #  2     ecut=    90.00 Ry     beta= 0.70
     Davidson diagonalization with overlap
     ethr =  3.97E-03,  avg # of iterations =  3.0

     total cpu time spent up to now is        5.9 secs

     total energy              =    -275.68349439 Ry
     estimated scf accuracy    <       1.32486880 Ry

     iteration #  3     ecut=    90.00 Ry     beta= 0.70
     Davidson diagonalization with overlap
     ethr =  2.07E-03,  avg # of iterations =  2.0

     total cpu time spent up to now is        7.8 secs

     total energy              =    -275.83950648 Ry
     estimated scf accuracy    <       0.05744830 Ry

     iteration #  4     ecut=    90.00 Ry     beta= 0.70
     Davidson diagonalization with overlap
     ethr =  8.98E-05,  avg # of iterations =  4.5

     total cpu time spent up to now is       10.6 secs

     total energy              =    -275.88118370 Ry
     estimated scf accuracy    <       0.07952006 Ry

     iteration #  5     ecut=    90.00 Ry     beta= 0.70
     Davidson diagonalization with overlap
     ethr =  8.98E-05,  avg # of iterations =  2.0

     total cpu time spent up to now is       12.4 secs

     total energy              =    -275.88269054 Ry
     estimated scf accuracy    <       0.01216432 Ry

     iteration #  6     ecut=    90.00 Ry     beta= 0.70
     Davidson diagonalization with overlap
     ethr =  1.90E-05,  avg # of iterations =  2.6

     total cpu time spent up to now is       14.6 secs

     total energy              =    -275.88604599 Ry
     estimated scf accuracy    <       0.00006853 Ry

     iteration #  7     ecut=    90.00 Ry     beta= 0.70
     Davidson diagonalization with overlap
     ethr =  1.07E-07,  avg # of iterations =  5.5

     total cpu time spent up to now is       18.1 secs

     total energy              =    -275.88624624 Ry
     estimated scf accuracy    <       0.00020432 Ry

     iteration #  8     ecut=    90.00 Ry     beta= 0.70
     Davidson diagonalization with overlap
     ethr =  1.07E-07,  avg # of iterations =  2.0

     total cpu time spent up to now is       20.0 secs

     total energy              =    -275.88624025 Ry
     estimated scf accuracy    <       0.00004593 Ry

     iteration #  9     ecut=    90.00 Ry     beta= 0.70
     Davidson diagonalization with overlap
     ethr =  7.18E-08,  avg # of iterations =  2.0

     total cpu time spent up to now is       21.9 secs

     total energy              =    -275.88624657 Ry
     estimated scf accuracy    <       0.00000344 Ry

     iteration # 10     ecut=    90.00 Ry     beta= 0.70
     Davidson diagonalization with overlap
     ethr =  5.37E-09,  avg # of iterations =  3.5

     total cpu time spent up to now is       24.5 secs

     total energy              =    -275.88624882 Ry
     estimated scf accuracy    <       0.00000058 Ry

     iteration # 11     ecut=    90.00 Ry     beta= 0.70
     Davidson diagonalization with overlap
     ethr =  9.02E-10,  avg # of iterations =  2.0

     total cpu time spent up to now is       26.3 secs

     total energy              =    -275.88624875 Ry
     estimated scf accuracy    <       0.00000034 Ry

     iteration # 12     ecut=    90.00 Ry     beta= 0.70
     Davidson diagonalization with overlap
     ethr =  5.34E-10,  avg # of iterations =  1.9

     total cpu time spent up to now is       27.9 secs

     End of self-consistent calculation

     Number of k-points >= 100: set verbosity='high' to print the bands.

     highest occupied level (ev):     0.1356

!    total energy              =    -275.88624874 Ry
     estimated scf accuracy    <       0.00000005 Ry

     The total energy is the sum of the following terms:
     one-electron contribution =    -119.60947319 Ry
     hartree contribution      =      87.78788920 Ry
     xc contribution           =     -68.08466093 Ry
     ewald contribution        =    -175.98000383 Ry

     convergence has been achieved in  12 iterations

     Forces acting on atoms (cartesian axes, Ry/au):

     atom    1 type  2   force =     0.00000000    0.00000022   -0.02993396
     atom    2 type  2   force =     0.00000000   -0.00000022    0.02993396
     atom    3 type  2   force =     0.00000000    0.00000008   -0.02993513
     atom    4 type  2   force =     0.00000000   -0.00000008    0.02993513
     atom    5 type  2   force =     0.00000000    0.00000001   -0.02993188
     atom    6 type  2   force =     0.00000000   -0.00000001    0.02993188
     atom    7 type  2   force =    -0.00000000   -0.00000000   -0.02993194
     atom    8 type  2   force =    -0.00000000    0.00000000    0.02993194
     atom    9 type  1   force =     0.00000000    0.02307891    0.01596547
     atom   10 type  1   force =     0.00000000   -0.02307891   -0.01596547
     atom   11 type  1   force =     0.00000000   -0.02307899    0.01596545
     atom   12 type  1   force =     0.00000000    0.02307899   -0.01596545
     atom   13 type  1   force =    -0.02308037   -0.00000000    0.01596627
     atom   14 type  1   force =     0.02308037    0.00000000   -0.01596627
     atom   15 type  1   force =     0.02308043   -0.00000000    0.01596628
     atom   16 type  1   force =    -0.02308043    0.00000000   -0.01596628
     atom   17 type  1   force =     0.02308043    0.00000000   -0.01596628
     atom   18 type  1   force =    -0.02308043   -0.00000000    0.01596628
     atom   19 type  1   force =    -0.02308037    0.00000000   -0.01596627
     atom   20 type  1   force =     0.02308037   -0.00000000    0.01596627
     atom   21 type  1   force =     0.00000000    0.02307893    0.01596540
     atom   22 type  1   force =     0.00000000   -0.02307893   -0.01596540
     atom   23 type  1   force =     0.00000000   -0.02307909    0.01596560
     atom   24 type  1   force =     0.00000000    0.02307909   -0.01596560

     Total force =     0.140603     Total SCF correction =     0.000254


     Computing stress (Cartesian axis) and pressure

          total   stress  (Ry/bohr**3)                   (kbar)     P=       77.64
   0.00052303   0.00000000   0.00000000           76.94        0.00        0.00
   0.00000000   0.00052324  -0.00000000            0.00       76.97       -0.00
   0.00000000  -0.00000000   0.00053704            0.00       -0.00       79.00


     Writing all to output data dir ./iceVIII/iceVIII.save/ :
     XML data file, charge density, pseudopotentials, collected wavefunctions

     init_run     :      1.21s CPU      1.27s WALL (       1 calls)
     electrons    :     25.91s CPU     26.45s WALL (       1 calls)
     forces       :      0.13s CPU      0.14s WALL (       1 calls)
     stress       :      1.57s CPU      1.58s WALL (       1 calls)

     Called by init_run:
     wfcinit      :      0.87s CPU      0.89s WALL (       1 calls)
     potinit      :      0.02s CPU      0.03s WALL (       1 calls)
     hinit0       :      0.27s CPU      0.28s WALL (       1 calls)

     Called by electrons:
     c_bands      :     23.07s CPU     23.53s WALL (      12 calls)
     sum_band     :      2.71s CPU      2.76s WALL (      12 calls)
     v_of_rho     :      0.09s CPU      0.10s WALL (      13 calls)
     newd         :      0.02s CPU      0.02s WALL (      13 calls)
     mix_rho      :      0.02s CPU      0.02s WALL (      12 calls)

     Called by c_bands:
     init_us_2    :      0.29s CPU      0.30s WALL (     972 calls)
     cegterg      :     21.66s CPU     21.93s WALL (     432 calls)

     Called by *egterg:
     cdiaghg      :      2.68s CPU      2.70s WALL (    1619 calls)
     h_psi        :     16.55s CPU     16.78s WALL (    1655 calls)
     s_psi        :      0.62s CPU      0.62s WALL (    1655 calls)
     g_psi        :      0.05s CPU      0.05s WALL (    1187 calls)

     Called by h_psi:
     h_psi:calbec :      0.85s CPU      0.87s WALL (    1655 calls)
     vloc_psi     :     14.96s CPU     15.17s WALL (    1655 calls)
     add_vuspsi   :      0.65s CPU      0.66s WALL (    1655 calls)

     General routines
     calbec       :      1.24s CPU      1.26s WALL (    2267 calls)
     fft          :      0.30s CPU      0.31s WALL (     151 calls)
     ffts         :      0.00s CPU      0.00s WALL (      12 calls)
     fftw         :     15.94s CPU     16.17s WALL (  102318 calls)

     Parallel routines

     PWSCF        :     29.64s CPU     30.98s WALL


   This run was terminated on:  18: 4:30  23Mar2026            

=------------------------------------------------------------------------------=
   JOB DONE.
=------------------------------------------------------------------------------=
