
     Program PWSCF v.7.3.1 starts on 21Mar2026 at 19:56:15 

     This program is part of the open-source Quantum ESPRESSO suite
     for quantum simulation of materials; please cite
         "P. Giannozzi et al., J. Phys.:Condens. Matter 21 395502 (2009);
         "P. Giannozzi et al., J. Phys.:Condens. Matter 29 465901 (2017);
         "P. Giannozzi et al., J. Chem. Phys. 152 154105 (2020);
          URL http://www.quantum-espresso.org", 
     in publications or presentations arising from this work. More details at
     http://www.quantum-espresso.org/quote

     Parallel version (MPI), running on   128 processors

     MPI processes distributed on     1 nodes
     242229 MiB available memory on the printing compute node when the environment starts

     Waiting for input...
     Reading input from standard input

     Current dimensions of program PWSCF are:
     Max number of different atomic species (ntypx) = 10
     Max number of k-points (npk) =  40000
     Max angular momentum in pseudopotentials (lmaxx) =  4
     Found identity + ( -0.5000 -0.5000  0.5000) symmetry
     This is a supercell, fractional translations are disabled

     K-points division:     npool     =       4
     R & G space division:  proc/nbgrp/npool/nimage =      32
     Subspace diagonalization in iterative solution of the eigenvalue problem:
     a serial algorithm will be used


     Parallelization info
     --------------------
     sticks:   dense  smooth     PW     G-vecs:    dense   smooth      PW
     Min          69      69     18                 3487     3487     502
     Max          70      70     19                 3493     3493     511
     Sum        2209    2209    601               111661   111661   16233

     Using Slab Decomposition



     bravais-lattice index     =            6
     lattice parameter (alat)  =       8.7518  a.u.
     unit-cell volume          =     966.7486 (a.u.)^3
     number of atoms/cell      =           24
     number of atomic types    =            2
     number of electrons       =        64.00
     number of Kohn-Sham states=           32
     kinetic-energy cutoff     =      90.0000  Ry
     charge density cutoff     =     360.0000  Ry
     scf convergence threshold =      1.0E-07
     mixing beta               =       0.7000
     number of iterations used =            8  plain     mixing
     Exchange-correlation=  SLA  PW   PBE  PBE
                           (   1   4   3   4   0   0   0)

     celldm(1)=   8.751778  celldm(2)=   0.000000  celldm(3)=   1.442197
     celldm(4)=   0.000000  celldm(5)=   0.000000  celldm(6)=   0.000000

     crystal axes: (cart. coord. in units of alat)
               a(1) = (   1.000000   0.000000   0.000000 )  
               a(2) = (   0.000000   1.000000   0.000000 )  
               a(3) = (   0.000000   0.000000   1.442197 )  

     reciprocal axes: (cart. coord. in units 2 pi/alat)
               b(1) = (  1.000000  0.000000  0.000000 )  
               b(2) = (  0.000000  1.000000  0.000000 )  
               b(3) = (  0.000000  0.000000  0.693386 )  


     PseudoPot. # 1 for H  read from file:
     ./H.pbe-van_ak.UPF
     MD5 check sum: 077eb6d537518a38cb46c6de387227b7
     Pseudo is Ultrasoft, Zval =  1.0
     Generated by new atomic code, or converted to UPF format
     Using radial grid of  615 points,  1 beta functions with: 
                l(1) =   0
     Q(r) pseudized with  8 coefficients,  rinner =    0.800

     PseudoPot. # 2 for O  read from file:
     ./O.pbe-van_ak.UPF
     MD5 check sum: 78c19812648e8988a0fe644b0f25305e
     Pseudo is Ultrasoft, Zval =  6.0
     Generated by new atomic code, or converted to UPF format
     Using radial grid of  737 points,  4 beta functions with: 
                l(1) =   0
                l(2) =   0
                l(3) =   1
                l(4) =   1
     Q(r) pseudized with  8 coefficients,  rinner =    0.800   0.800   0.800


     atomic species   valence    mass     pseudopotential
     H                 1.00     1.00800     H ( 1.00)
     O                 6.00    16.00000     O ( 1.00)

      4 Sym. Ops., with inversion, found



   Cartesian axes

     site n.     atom                  positions (alat units)
         1        O      tau(   1) = (   0.0000000   0.2500000   0.8781106  )
         2        O      tau(   2) = (   0.0000000   0.7500000   0.5640866  )
         3        O      tau(   3) = (   0.5000000   0.7500000   0.1570120  )
         4        O      tau(   4) = (   0.5000000   0.2500000   1.2851851  )
         5        O      tau(   5) = (   0.0000000   0.7500000   1.2386599  )
         6        O      tau(   6) = (   0.0000000   0.2500000   0.2035373  )
         7        O      tau(   7) = (   0.5000000   0.2500000   0.5175613  )
         8        O      tau(   8) = (   0.5000000   0.7500000   0.9246358  )
         9        H      tau(   9) = (   0.0000000   0.4142500   1.0027885  )
        10        H      tau(  10) = (   0.0000000   0.5857500   0.4394086  )
        11        H      tau(  11) = (   0.5000000   0.5857500   0.2816900  )
        12        H      tau(  12) = (   0.5000000   0.4142500   1.1605072  )
        13        H      tau(  13) = (   0.8357500   0.7500000   1.3633378  )
        14        H      tau(  14) = (   0.1642500   0.2500000   0.0788593  )
        15        H      tau(  15) = (   0.6642500   0.2500000   0.6422392  )
        16        H      tau(  16) = (   0.3357500   0.7500000   0.7999579  )
        17        H      tau(  17) = (   0.6642500   0.7500000   0.7999579  )
        18        H      tau(  18) = (   0.3357500   0.2500000   0.6422392  )
        19        H      tau(  19) = (   0.8357500   0.2500000   0.0788593  )
        20        H      tau(  20) = (   0.1642500   0.7500000   1.3633378  )
        21        H      tau(  21) = (   0.5000000   0.9142500   0.2816900  )
        22        H      tau(  22) = (   0.5000000   0.0857500   1.1605072  )
        23        H      tau(  23) = (   0.0000000   0.0857500   1.0027885  )
        24        H      tau(  24) = (   0.0000000   0.9142500   0.4394086  )

     number of k points=   144

     Number of k-points >= 100: set verbosity='high' to print them.

     Dense  grid:   111661 G-vectors     FFT dimensions: (  54,  54,  80)

     Estimated max dynamical RAM per process >      12.92 MB

     Estimated total dynamical RAM >       1.54 GB

     Initial potential from superposition of free atoms

     starting charge      63.9998, renormalised to      64.0000
     Starting wfcs are   48 randomized atomic wfcs

     total cpu time spent up to now is        1.5 secs

     per-process dynamical memory:    19.5 Mb

     Self-consistent Calculation

     iteration #  1     ecut=    90.00 Ry     beta= 0.70
     Davidson diagonalization with overlap
     ethr =  1.00E-02,  avg # of iterations =  2.0

     total cpu time spent up to now is        3.5 secs

     total energy              =    -274.78267057 Ry
     estimated scf accuracy    <       2.69466768 Ry

     iteration #  2     ecut=    90.00 Ry     beta= 0.70
     Davidson diagonalization with overlap
     ethr =  4.21E-03,  avg # of iterations =  3.0

     total cpu time spent up to now is        6.0 secs

     total energy              =    -275.64851606 Ry
     estimated scf accuracy    <       1.35220607 Ry

     iteration #  3     ecut=    90.00 Ry     beta= 0.70
     Davidson diagonalization with overlap
     ethr =  2.11E-03,  avg # of iterations =  2.0

     total cpu time spent up to now is        7.8 secs

     total energy              =    -275.80905957 Ry
     estimated scf accuracy    <       0.05701965 Ry

     iteration #  4     ecut=    90.00 Ry     beta= 0.70
     Davidson diagonalization with overlap
     ethr =  8.91E-05,  avg # of iterations =  4.2

     total cpu time spent up to now is       10.6 secs

     total energy              =    -275.85049939 Ry
     estimated scf accuracy    <       0.08152439 Ry

     iteration #  5     ecut=    90.00 Ry     beta= 0.70
     Davidson diagonalization with overlap
     ethr =  8.91E-05,  avg # of iterations =  2.0

     total cpu time spent up to now is       12.4 secs

     total energy              =    -275.85207665 Ry
     estimated scf accuracy    <       0.01253350 Ry

     iteration #  6     ecut=    90.00 Ry     beta= 0.70
     Davidson diagonalization with overlap
     ethr =  1.96E-05,  avg # of iterations =  2.7

     total cpu time spent up to now is       14.5 secs

     total energy              =    -275.85552478 Ry
     estimated scf accuracy    <       0.00007888 Ry

     iteration #  7     ecut=    90.00 Ry     beta= 0.70
     Davidson diagonalization with overlap
     ethr =  1.23E-07,  avg # of iterations =  5.7

     total cpu time spent up to now is       18.0 secs

     total energy              =    -275.85573529 Ry
     estimated scf accuracy    <       0.00023229 Ry

     iteration #  8     ecut=    90.00 Ry     beta= 0.70
     Davidson diagonalization with overlap
     ethr =  1.23E-07,  avg # of iterations =  2.0

     total cpu time spent up to now is       20.0 secs

     total energy              =    -275.85574436 Ry
     estimated scf accuracy    <       0.00002918 Ry

     iteration #  9     ecut=    90.00 Ry     beta= 0.70
     Davidson diagonalization with overlap
     ethr =  4.56E-08,  avg # of iterations =  3.0

     total cpu time spent up to now is       22.4 secs

     End of self-consistent calculation

     Number of k-points >= 100: set verbosity='high' to print the bands.

     highest occupied level (ev):     0.0352

!    total energy              =    -275.85575371 Ry
     estimated scf accuracy    <       0.00000002 Ry

     The total energy is the sum of the following terms:
     one-electron contribution =    -123.14232783 Ry
     hartree contribution      =      89.27377318 Ry
     xc contribution           =     -68.35769702 Ry
     ewald contribution        =    -173.62950204 Ry

     convergence has been achieved in   9 iterations

     Forces acting on atoms (cartesian axes, Ry/au):

     atom    1 type  2   force =     0.00000000    0.00000004   -0.07536450
     atom    2 type  2   force =     0.00000000   -0.00000004    0.07536450
     atom    3 type  2   force =     0.00000000   -0.00000005   -0.07536791
     atom    4 type  2   force =     0.00000000    0.00000005    0.07536791
     atom    5 type  2   force =     0.00000000    0.00000032   -0.07533561
     atom    6 type  2   force =     0.00000000   -0.00000032    0.07533561
     atom    7 type  2   force =     0.00000000    0.00000043   -0.07532822
     atom    8 type  2   force =     0.00000000   -0.00000043    0.07532822
     atom    9 type  1   force =     0.00000000    0.05762042    0.03850214
     atom   10 type  1   force =     0.00000000   -0.05762042   -0.03850214
     atom   11 type  1   force =     0.00000000   -0.05762068    0.03850283
     atom   12 type  1   force =     0.00000000    0.05762068   -0.03850283
     atom   13 type  1   force =    -0.05762820   -0.00000001    0.03850452
     atom   14 type  1   force =     0.05762820    0.00000001   -0.03850452
     atom   15 type  1   force =     0.05762919    0.00000000    0.03850569
     atom   16 type  1   force =    -0.05762919   -0.00000000   -0.03850569
     atom   17 type  1   force =     0.05762919   -0.00000000   -0.03850569
     atom   18 type  1   force =    -0.05762919    0.00000000    0.03850569
     atom   19 type  1   force =    -0.05762820    0.00000001   -0.03850452
     atom   20 type  1   force =     0.05762820   -0.00000001    0.03850452
     atom   21 type  1   force =     0.00000000    0.05762064    0.03850276
     atom   22 type  1   force =     0.00000000   -0.05762064   -0.03850276
     atom   23 type  1   force =     0.00000000   -0.05762045    0.03850219
     atom   24 type  1   force =     0.00000000    0.05762045   -0.03850219

     Total force =     0.349671     Total SCF correction =     0.000144


     Computing stress (Cartesian axis) and pressure

          total   stress  (Ry/bohr**3)                   (kbar)     P=      138.05
   0.00092728   0.00000000   0.00000000          136.41        0.00        0.00
   0.00000000   0.00092736  -0.00000000            0.00      136.42       -0.00
   0.00000000  -0.00000000   0.00096079            0.00       -0.00      141.34


     Writing all to output data dir ./iceVIII/iceVIII.save/ :
     XML data file, charge density, pseudopotentials, collected wavefunctions

     init_run     :      1.21s CPU      1.27s WALL (       1 calls)
     electrons    :     20.44s CPU     20.92s WALL (       1 calls)
     forces       :      0.13s CPU      0.14s WALL (       1 calls)
     stress       :      1.54s CPU      1.56s WALL (       1 calls)

     Called by init_run:
     wfcinit      :      0.86s CPU      0.88s WALL (       1 calls)
     potinit      :      0.03s CPU      0.03s WALL (       1 calls)
     hinit0       :      0.27s CPU      0.28s WALL (       1 calls)

     Called by electrons:
     c_bands      :     18.29s CPU     18.68s WALL (       9 calls)
     sum_band     :      2.06s CPU      2.08s WALL (       9 calls)
     v_of_rho     :      0.07s CPU      0.08s WALL (      10 calls)
     newd         :      0.02s CPU      0.02s WALL (      10 calls)
     mix_rho      :      0.01s CPU      0.01s WALL (       9 calls)

     Called by c_bands:
     init_us_2    :      0.23s CPU      0.23s WALL (     756 calls)
     cegterg      :     17.23s CPU     17.47s WALL (     324 calls)

     Called by *egterg:
     cdiaghg      :      2.18s CPU      2.19s WALL (    1273 calls)
     h_psi        :     13.24s CPU     13.46s WALL (    1309 calls)
     s_psi        :      0.49s CPU      0.50s WALL (    1309 calls)
     g_psi        :      0.04s CPU      0.04s WALL (     949 calls)

     Called by h_psi:
     h_psi:calbec :      0.67s CPU      0.69s WALL (    1309 calls)
     vloc_psi     :     11.99s CPU     12.18s WALL (    1309 calls)
     add_vuspsi   :      0.52s CPU      0.53s WALL (    1309 calls)

     General routines
     calbec       :      0.97s CPU      0.98s WALL (    1813 calls)
     fft          :      0.29s CPU      0.29s WALL (     118 calls)
     ffts         :      0.00s CPU      0.00s WALL (       9 calls)
     fftw         :     12.71s CPU     12.91s WALL (   80880 calls)

     Parallel routines

     PWSCF        :     24.26s CPU     25.46s WALL


   This run was terminated on:  19:56:41  21Mar2026            

=------------------------------------------------------------------------------=
   JOB DONE.
=------------------------------------------------------------------------------=
