
     Program PWSCF v.7.3.1 starts on 23Mar2026 at 18: 6: 5 

     This program is part of the open-source Quantum ESPRESSO suite
     for quantum simulation of materials; please cite
         "P. Giannozzi et al., J. Phys.:Condens. Matter 21 395502 (2009);
         "P. Giannozzi et al., J. Phys.:Condens. Matter 29 465901 (2017);
         "P. Giannozzi et al., J. Chem. Phys. 152 154105 (2020);
          URL http://www.quantum-espresso.org", 
     in publications or presentations arising from this work. More details at
     http://www.quantum-espresso.org/quote

     Parallel version (MPI), running on   128 processors

     MPI processes distributed on     1 nodes
     242521 MiB available memory on the printing compute node when the environment starts

     Waiting for input...
     Reading input from standard input

     Current dimensions of program PWSCF are:
     Max number of different atomic species (ntypx) = 10
     Max number of k-points (npk) =  40000
     Max angular momentum in pseudopotentials (lmaxx) =  4
     Found identity + ( -0.5000 -0.5000  0.5000) symmetry
     This is a supercell, fractional translations are disabled

     K-points division:     npool     =       4
     R & G space division:  proc/nbgrp/npool/nimage =      32
     Subspace diagonalization in iterative solution of the eigenvalue problem:
     a serial algorithm will be used


     Parallelization info
     --------------------
     sticks:   dense  smooth     PW     G-vecs:    dense   smooth      PW
     Min          69      69     19                 3551     3551     513
     Max          70      70     20                 3558     3558     519
     Sum        2225    2225    609               113693   113693   16521

     Using Slab Decomposition



     bravais-lattice index     =            6
     lattice parameter (alat)  =       8.8050  a.u.
     unit-cell volume          =     984.5048 (a.u.)^3
     number of atoms/cell      =           24
     number of atomic types    =            2
     number of electrons       =        64.00
     number of Kohn-Sham states=           32
     kinetic-energy cutoff     =      90.0000  Ry
     charge density cutoff     =     360.0000  Ry
     scf convergence threshold =      1.0E-07
     mixing beta               =       0.7000
     number of iterations used =            8  plain     mixing
     Exchange-correlation=  SLA  PW   PBE  PBE
                           (   1   4   3   4   0   0   0)

     celldm(1)=   8.805035  celldm(2)=   0.000000  celldm(3)=   1.442197
     celldm(4)=   0.000000  celldm(5)=   0.000000  celldm(6)=   0.000000

     crystal axes: (cart. coord. in units of alat)
               a(1) = (   1.000000   0.000000   0.000000 )  
               a(2) = (   0.000000   1.000000   0.000000 )  
               a(3) = (   0.000000   0.000000   1.442197 )  

     reciprocal axes: (cart. coord. in units 2 pi/alat)
               b(1) = (  1.000000  0.000000  0.000000 )  
               b(2) = (  0.000000  1.000000  0.000000 )  
               b(3) = (  0.000000  0.000000  0.693386 )  


     PseudoPot. # 1 for H  read from file:
     ./H.pbe-van_ak.UPF
     MD5 check sum: 077eb6d537518a38cb46c6de387227b7
     Pseudo is Ultrasoft, Zval =  1.0
     Generated by new atomic code, or converted to UPF format
     Using radial grid of  615 points,  1 beta functions with: 
                l(1) =   0
     Q(r) pseudized with  8 coefficients,  rinner =    0.800

     PseudoPot. # 2 for O  read from file:
     ./O.pbe-van_ak.UPF
     MD5 check sum: 78c19812648e8988a0fe644b0f25305e
     Pseudo is Ultrasoft, Zval =  6.0
     Generated by new atomic code, or converted to UPF format
     Using radial grid of  737 points,  4 beta functions with: 
                l(1) =   0
                l(2) =   0
                l(3) =   1
                l(4) =   1
     Q(r) pseudized with  8 coefficients,  rinner =    0.800   0.800   0.800


     atomic species   valence    mass     pseudopotential
     H                 1.00     1.00800     H ( 1.00)
     O                 6.00    16.00000     O ( 1.00)

      4 Sym. Ops., with inversion, found



   Cartesian axes

     site n.     atom                  positions (alat units)
         1        O      tau(   1) = (   0.0000000   0.2500000   0.8766577  )
         2        O      tau(   2) = (   0.0000000   0.7500000   0.5655395  )
         3        O      tau(   3) = (   0.5000000   0.7500000   0.1555590  )
         4        O      tau(   4) = (   0.5000000   0.2500000   1.2866381  )
         5        O      tau(   5) = (   0.0000000   0.7500000   1.2372108  )
         6        O      tau(   6) = (   0.0000000   0.2500000   0.2049863  )
         7        O      tau(   7) = (   0.5000000   0.2500000   0.5161123  )
         8        O      tau(   8) = (   0.5000000   0.7500000   0.9260848  )
         9        H      tau(   9) = (   0.0000000   0.4186701   1.0041518  )
        10        H      tau(  10) = (   0.0000000   0.5813299   0.4380453  )
        11        H      tau(  11) = (   0.5000000   0.5813299   0.2830532  )
        12        H      tau(  12) = (   0.5000000   0.4186701   1.1591439  )
        13        H      tau(  13) = (   0.8313288   0.7500000   1.3647034  )
        14        H      tau(  14) = (   0.1686712   0.2500000   0.0774938  )
        15        H      tau(  15) = (   0.6686712   0.2500000   0.6436049  )
        16        H      tau(  16) = (   0.3313288   0.7500000   0.7985923  )
        17        H      tau(  17) = (   0.6686712   0.7500000   0.7985923  )
        18        H      tau(  18) = (   0.3313288   0.2500000   0.6436049  )
        19        H      tau(  19) = (   0.8313288   0.2500000   0.0774938  )
        20        H      tau(  20) = (   0.1686712   0.7500000   1.3647034  )
        21        H      tau(  21) = (   0.5000000   0.9186701   0.2830532  )
        22        H      tau(  22) = (   0.5000000   0.0813299   1.1591439  )
        23        H      tau(  23) = (   0.0000000   0.0813299   1.0041518  )
        24        H      tau(  24) = (   0.0000000   0.9186701   0.4380454  )

     number of k points=   144

     Number of k-points >= 100: set verbosity='high' to print them.

     Dense  grid:   113693 G-vectors     FFT dimensions: (  54,  54,  80)

     Estimated max dynamical RAM per process >      13.13 MB

     Estimated total dynamical RAM >       1.56 GB

     Initial potential from superposition of free atoms

     starting charge      63.9998, renormalised to      64.0000
     Starting wfcs are   48 randomized atomic wfcs

     total cpu time spent up to now is        1.5 secs

     per-process dynamical memory:    19.5 Mb

     Self-consistent Calculation

     iteration #  1     ecut=    90.00 Ry     beta= 0.70
     Davidson diagonalization with overlap
     ethr =  1.00E-02,  avg # of iterations =  2.0

     total cpu time spent up to now is        3.5 secs

     total energy              =    -274.87491629 Ry
     estimated scf accuracy    <       2.51943775 Ry

     iteration #  2     ecut=    90.00 Ry     beta= 0.70
     Davidson diagonalization with overlap
     ethr =  3.94E-03,  avg # of iterations =  3.0

     total cpu time spent up to now is        5.9 secs

     total energy              =    -275.68527973 Ry
     estimated scf accuracy    <       1.37325407 Ry

     iteration #  3     ecut=    90.00 Ry     beta= 0.70
     Davidson diagonalization with overlap
     ethr =  2.15E-03,  avg # of iterations =  2.0

     total cpu time spent up to now is        7.7 secs

     total energy              =    -275.84767481 Ry
     estimated scf accuracy    <       0.06001977 Ry

     iteration #  4     ecut=    90.00 Ry     beta= 0.70
     Davidson diagonalization with overlap
     ethr =  9.38E-05,  avg # of iterations =  4.5

     total cpu time spent up to now is       10.6 secs

     total energy              =    -275.89223786 Ry
     estimated scf accuracy    <       0.08130144 Ry

     iteration #  5     ecut=    90.00 Ry     beta= 0.70
     Davidson diagonalization with overlap
     ethr =  9.38E-05,  avg # of iterations =  2.0

     total cpu time spent up to now is       12.4 secs

     total energy              =    -275.89330919 Ry
     estimated scf accuracy    <       0.01276118 Ry

     iteration #  6     ecut=    90.00 Ry     beta= 0.70
     Davidson diagonalization with overlap
     ethr =  1.99E-05,  avg # of iterations =  2.5

     total cpu time spent up to now is       14.6 secs

     total energy              =    -275.89672188 Ry
     estimated scf accuracy    <       0.00008825 Ry

     iteration #  7     ecut=    90.00 Ry     beta= 0.70
     Davidson diagonalization with overlap
     ethr =  1.38E-07,  avg # of iterations =  5.2

     total cpu time spent up to now is       18.1 secs

     total energy              =    -275.89694019 Ry
     estimated scf accuracy    <       0.00025257 Ry

     iteration #  8     ecut=    90.00 Ry     beta= 0.70
     Davidson diagonalization with overlap
     ethr =  1.38E-07,  avg # of iterations =  2.0

     total cpu time spent up to now is       19.8 secs

     total energy              =    -275.89692035 Ry
     estimated scf accuracy    <       0.00009410 Ry

     iteration #  9     ecut=    90.00 Ry     beta= 0.70
     Davidson diagonalization with overlap
     ethr =  1.38E-07,  avg # of iterations =  2.0

     total cpu time spent up to now is       21.5 secs

     total energy              =    -275.89692142 Ry
     estimated scf accuracy    <       0.00001857 Ry

     iteration # 10     ecut=    90.00 Ry     beta= 0.70
     Davidson diagonalization with overlap
     ethr =  2.90E-08,  avg # of iterations =  2.2

     total cpu time spent up to now is       23.4 secs

     total energy              =    -275.89692433 Ry
     estimated scf accuracy    <       0.00000162 Ry

     iteration # 11     ecut=    90.00 Ry     beta= 0.70
     Davidson diagonalization with overlap
     ethr =  2.53E-09,  avg # of iterations =  3.5

     total cpu time spent up to now is       25.6 secs

     End of self-consistent calculation

     Number of k-points >= 100: set verbosity='high' to print the bands.

     highest occupied level (ev):    -0.0375

!    total energy              =    -275.89692488 Ry
     estimated scf accuracy    <       0.00000004 Ry

     The total energy is the sum of the following terms:
     one-electron contribution =    -122.03341150 Ry
     hartree contribution      =      88.62678215 Ry
     xc contribution           =     -67.92948528 Ry
     ewald contribution        =    -174.56081025 Ry

     convergence has been achieved in  11 iterations

     Forces acting on atoms (cartesian axes, Ry/au):

     atom    1 type  2   force =     0.00000000    0.00000024   -0.01442123
     atom    2 type  2   force =     0.00000000   -0.00000024    0.01442123
     atom    3 type  2   force =     0.00000000    0.00000028   -0.01441941
     atom    4 type  2   force =     0.00000000   -0.00000028    0.01441941
     atom    5 type  2   force =     0.00000000   -0.00000004   -0.01441073
     atom    6 type  2   force =     0.00000000    0.00000004    0.01441073
     atom    7 type  2   force =    -0.00000000    0.00000025   -0.01440983
     atom    8 type  2   force =    -0.00000000   -0.00000025    0.01440983
     atom    9 type  1   force =     0.00000000    0.01128771    0.00812424
     atom   10 type  1   force =     0.00000000   -0.01128771   -0.00812424
     atom   11 type  1   force =     0.00000000   -0.01128904    0.00812515
     atom   12 type  1   force =     0.00000000    0.01128904   -0.00812515
     atom   13 type  1   force =    -0.01128965   -0.00000002    0.00812875
     atom   14 type  1   force =     0.01128965    0.00000002   -0.00812875
     atom   15 type  1   force =     0.01128941    0.00000001    0.00812863
     atom   16 type  1   force =    -0.01128941   -0.00000001   -0.00812863
     atom   17 type  1   force =     0.01128941   -0.00000001   -0.00812863
     atom   18 type  1   force =    -0.01128941    0.00000001    0.00812863
     atom   19 type  1   force =    -0.01128965    0.00000002   -0.00812875
     atom   20 type  1   force =     0.01128965   -0.00000002    0.00812875
     atom   21 type  1   force =     0.00000000    0.01128902    0.00812505
     atom   22 type  1   force =     0.00000000   -0.01128902   -0.00812505
     atom   23 type  1   force =     0.00000000   -0.01128781    0.00812436
     atom   24 type  1   force =     0.00000000    0.01128781   -0.00812436

     Total force =     0.068979     Total SCF correction =     0.000095


     Computing stress (Cartesian axis) and pressure

          total   stress  (Ry/bohr**3)                   (kbar)     P=       44.96
   0.00030283   0.00000000   0.00000000           44.55        0.00        0.00
   0.00000000   0.00030316  -0.00000000            0.00       44.60       -0.00
   0.00000000  -0.00000000   0.00031098            0.00       -0.00       45.75


     Writing all to output data dir ./iceVIII/iceVIII.save/ :
     XML data file, charge density, pseudopotentials, collected wavefunctions

     init_run     :      1.17s CPU      1.26s WALL (       1 calls)
     electrons    :     23.61s CPU     24.19s WALL (       1 calls)
     forces       :      0.12s CPU      0.14s WALL (       1 calls)
     stress       :      1.57s CPU      1.58s WALL (       1 calls)

     Called by init_run:
     wfcinit      :      0.83s CPU      0.87s WALL (       1 calls)
     potinit      :      0.01s CPU      0.03s WALL (       1 calls)
     hinit0       :      0.27s CPU      0.28s WALL (       1 calls)

     Called by electrons:
     c_bands      :     20.96s CPU     21.44s WALL (      11 calls)
     sum_band     :      2.52s CPU      2.59s WALL (      11 calls)
     v_of_rho     :      0.07s CPU      0.09s WALL (      12 calls)
     newd         :      0.02s CPU      0.02s WALL (      12 calls)
     mix_rho      :      0.02s CPU      0.02s WALL (      11 calls)

     Called by c_bands:
     init_us_2    :      0.27s CPU      0.28s WALL (     900 calls)
     cegterg      :     19.55s CPU     19.84s WALL (     396 calls)

     Called by *egterg:
     cdiaghg      :      2.47s CPU      2.49s WALL (    1506 calls)
     h_psi        :     14.89s CPU     15.16s WALL (    1542 calls)
     s_psi        :      0.58s CPU      0.59s WALL (    1542 calls)
     g_psi        :      0.04s CPU      0.04s WALL (    1110 calls)

     Called by h_psi:
     h_psi:calbec :      0.78s CPU      0.79s WALL (    1542 calls)
     vloc_psi     :     13.42s CPU     13.67s WALL (    1542 calls)
     add_vuspsi   :      0.62s CPU      0.63s WALL (    1542 calls)

     General routines
     calbec       :      1.11s CPU      1.13s WALL (    2118 calls)
     fft          :      0.30s CPU      0.31s WALL (     140 calls)
     ffts         :      0.00s CPU      0.00s WALL (      11 calls)
     fftw         :     14.32s CPU     14.59s WALL (   91876 calls)

     Parallel routines

     PWSCF        :     27.21s CPU     28.64s WALL


   This run was terminated on:  18: 6:34  23Mar2026            

=------------------------------------------------------------------------------=
   JOB DONE.
=------------------------------------------------------------------------------=
