
     Program PWSCF v.7.3.1 starts on 21Mar2026 at 20: 4:34 

     This program is part of the open-source Quantum ESPRESSO suite
     for quantum simulation of materials; please cite
         "P. Giannozzi et al., J. Phys.:Condens. Matter 21 395502 (2009);
         "P. Giannozzi et al., J. Phys.:Condens. Matter 29 465901 (2017);
         "P. Giannozzi et al., J. Chem. Phys. 152 154105 (2020);
          URL http://www.quantum-espresso.org", 
     in publications or presentations arising from this work. More details at
     http://www.quantum-espresso.org/quote

     Parallel version (MPI), running on   128 processors

     MPI processes distributed on     1 nodes
     242312 MiB available memory on the printing compute node when the environment starts

     Waiting for input...
     Reading input from standard input

     Current dimensions of program PWSCF are:
     Max number of different atomic species (ntypx) = 10
     Max number of k-points (npk) =  40000
     Max angular momentum in pseudopotentials (lmaxx) =  4
     Found identity + ( -0.5000 -0.5000  0.5000) symmetry
     This is a supercell, fractional translations are disabled

     K-points division:     npool     =       4
     R & G space division:  proc/nbgrp/npool/nimage =      32
     Subspace diagonalization in iterative solution of the eigenvalue problem:
     a serial algorithm will be used


     Parallelization info
     --------------------
     sticks:   dense  smooth     PW     G-vecs:    dense   smooth      PW
     Min          69      69     19                 3551     3551     513
     Max          70      70     20                 3558     3558     519
     Sum        2225    2225    609               113693   113693   16521

     Using Slab Decomposition



     bravais-lattice index     =            6
     lattice parameter (alat)  =       8.8050  a.u.
     unit-cell volume          =     984.5048 (a.u.)^3
     number of atoms/cell      =           24
     number of atomic types    =            2
     number of electrons       =        64.00
     number of Kohn-Sham states=           32
     kinetic-energy cutoff     =      90.0000  Ry
     charge density cutoff     =     360.0000  Ry
     scf convergence threshold =      1.0E-07
     mixing beta               =       0.7000
     number of iterations used =            8  plain     mixing
     Exchange-correlation=  SLA  PW   PBE  PBE
                           (   1   4   3   4   0   0   0)

     celldm(1)=   8.805035  celldm(2)=   0.000000  celldm(3)=   1.442197
     celldm(4)=   0.000000  celldm(5)=   0.000000  celldm(6)=   0.000000

     crystal axes: (cart. coord. in units of alat)
               a(1) = (   1.000000   0.000000   0.000000 )  
               a(2) = (   0.000000   1.000000   0.000000 )  
               a(3) = (   0.000000   0.000000   1.442197 )  

     reciprocal axes: (cart. coord. in units 2 pi/alat)
               b(1) = (  1.000000  0.000000  0.000000 )  
               b(2) = (  0.000000  1.000000  0.000000 )  
               b(3) = (  0.000000  0.000000  0.693386 )  


     PseudoPot. # 1 for H  read from file:
     ./H.pbe-van_ak.UPF
     MD5 check sum: 077eb6d537518a38cb46c6de387227b7
     Pseudo is Ultrasoft, Zval =  1.0
     Generated by new atomic code, or converted to UPF format
     Using radial grid of  615 points,  1 beta functions with: 
                l(1) =   0
     Q(r) pseudized with  8 coefficients,  rinner =    0.800

     PseudoPot. # 2 for O  read from file:
     ./O.pbe-van_ak.UPF
     MD5 check sum: 78c19812648e8988a0fe644b0f25305e
     Pseudo is Ultrasoft, Zval =  6.0
     Generated by new atomic code, or converted to UPF format
     Using radial grid of  737 points,  4 beta functions with: 
                l(1) =   0
                l(2) =   0
                l(3) =   1
                l(4) =   1
     Q(r) pseudized with  8 coefficients,  rinner =    0.800   0.800   0.800


     atomic species   valence    mass     pseudopotential
     H                 1.00     1.00800     H ( 1.00)
     O                 6.00    16.00000     O ( 1.00)

      4 Sym. Ops., with inversion, found



   Cartesian axes

     site n.     atom                  positions (alat units)
         1        O      tau(   1) = (   0.0000000   0.2500000   0.8781106  )
         2        O      tau(   2) = (   0.0000000   0.7500000   0.5640866  )
         3        O      tau(   3) = (   0.5000000   0.7500000   0.1570120  )
         4        O      tau(   4) = (   0.5000000   0.2500000   1.2851851  )
         5        O      tau(   5) = (   0.0000000   0.7500000   1.2386599  )
         6        O      tau(   6) = (   0.0000000   0.2500000   0.2035373  )
         7        O      tau(   7) = (   0.5000000   0.2500000   0.5175613  )
         8        O      tau(   8) = (   0.5000000   0.7500000   0.9246358  )
         9        H      tau(   9) = (   0.0000000   0.4142500   1.0027885  )
        10        H      tau(  10) = (   0.0000000   0.5857500   0.4394086  )
        11        H      tau(  11) = (   0.5000000   0.5857500   0.2816900  )
        12        H      tau(  12) = (   0.5000000   0.4142500   1.1605072  )
        13        H      tau(  13) = (   0.8357500   0.7500000   1.3633378  )
        14        H      tau(  14) = (   0.1642500   0.2500000   0.0788593  )
        15        H      tau(  15) = (   0.6642500   0.2500000   0.6422392  )
        16        H      tau(  16) = (   0.3357500   0.7500000   0.7999579  )
        17        H      tau(  17) = (   0.6642500   0.7500000   0.7999579  )
        18        H      tau(  18) = (   0.3357500   0.2500000   0.6422392  )
        19        H      tau(  19) = (   0.8357500   0.2500000   0.0788593  )
        20        H      tau(  20) = (   0.1642500   0.7500000   1.3633378  )
        21        H      tau(  21) = (   0.5000000   0.9142500   0.2816900  )
        22        H      tau(  22) = (   0.5000000   0.0857500   1.1605072  )
        23        H      tau(  23) = (   0.0000000   0.0857500   1.0027885  )
        24        H      tau(  24) = (   0.0000000   0.9142500   0.4394086  )

     number of k points=   144

     Number of k-points >= 100: set verbosity='high' to print them.

     Dense  grid:   113693 G-vectors     FFT dimensions: (  54,  54,  80)

     Estimated max dynamical RAM per process >      13.13 MB

     Estimated total dynamical RAM >       1.56 GB

     Initial potential from superposition of free atoms

     starting charge      63.9998, renormalised to      64.0000
     Starting wfcs are   48 randomized atomic wfcs

     total cpu time spent up to now is        1.5 secs

     per-process dynamical memory:    19.6 Mb

     Self-consistent Calculation

     iteration #  1     ecut=    90.00 Ry     beta= 0.70
     Davidson diagonalization with overlap
     ethr =  1.00E-02,  avg # of iterations =  2.0

     total cpu time spent up to now is        3.5 secs

     total energy              =    -274.79841852 Ry
     estimated scf accuracy    <       2.67697765 Ry

     iteration #  2     ecut=    90.00 Ry     beta= 0.70
     Davidson diagonalization with overlap
     ethr =  4.18E-03,  avg # of iterations =  3.0

     total cpu time spent up to now is        5.9 secs

     total energy              =    -275.65693915 Ry
     estimated scf accuracy    <       1.38953235 Ry

     iteration #  3     ecut=    90.00 Ry     beta= 0.70
     Davidson diagonalization with overlap
     ethr =  2.17E-03,  avg # of iterations =  2.0

     total cpu time spent up to now is        7.8 secs

     total energy              =    -275.82310409 Ry
     estimated scf accuracy    <       0.05869633 Ry

     iteration #  4     ecut=    90.00 Ry     beta= 0.70
     Davidson diagonalization with overlap
     ethr =  9.17E-05,  avg # of iterations =  4.3

     total cpu time spent up to now is       10.6 secs

     total energy              =    -275.86652339 Ry
     estimated scf accuracy    <       0.08291982 Ry

     iteration #  5     ecut=    90.00 Ry     beta= 0.70
     Davidson diagonalization with overlap
     ethr =  9.17E-05,  avg # of iterations =  2.0

     total cpu time spent up to now is       12.5 secs

     total energy              =    -275.86777611 Ry
     estimated scf accuracy    <       0.01297463 Ry

     iteration #  6     ecut=    90.00 Ry     beta= 0.70
     Davidson diagonalization with overlap
     ethr =  2.03E-05,  avg # of iterations =  2.6

     total cpu time spent up to now is       14.7 secs

     total energy              =    -275.87126862 Ry
     estimated scf accuracy    <       0.00008931 Ry

     iteration #  7     ecut=    90.00 Ry     beta= 0.70
     Davidson diagonalization with overlap
     ethr =  1.40E-07,  avg # of iterations =  5.5

     total cpu time spent up to now is       18.2 secs

     total energy              =    -275.87149029 Ry
     estimated scf accuracy    <       0.00025245 Ry

     iteration #  8     ecut=    90.00 Ry     beta= 0.70
     Davidson diagonalization with overlap
     ethr =  1.40E-07,  avg # of iterations =  2.0

     total cpu time spent up to now is       20.2 secs

     total energy              =    -275.87149000 Ry
     estimated scf accuracy    <       0.00005073 Ry

     iteration #  9     ecut=    90.00 Ry     beta= 0.70
     Davidson diagonalization with overlap
     ethr =  7.93E-08,  avg # of iterations =  2.0

     total cpu time spent up to now is       22.1 secs

     total energy              =    -275.87149553 Ry
     estimated scf accuracy    <       0.00000570 Ry

     iteration # 10     ecut=    90.00 Ry     beta= 0.70
     Davidson diagonalization with overlap
     ethr =  8.91E-09,  avg # of iterations =  3.0

     total cpu time spent up to now is       24.4 secs

     End of self-consistent calculation

     Number of k-points >= 100: set verbosity='high' to print the bands.

     highest occupied level (ev):    -0.0933

!    total energy              =    -275.87149810 Ry
     estimated scf accuracy    <       0.00000009 Ry

     The total energy is the sum of the following terms:
     one-electron contribution =    -124.96347200 Ry
     hartree contribution      =      89.91446822 Ry
     xc contribution           =     -68.24317072 Ry
     ewald contribution        =    -172.57932360 Ry

     convergence has been achieved in  10 iterations

     Forces acting on atoms (cartesian axes, Ry/au):

     atom    1 type  2   force =    -0.00000000   -0.00000017   -0.06205397
     atom    2 type  2   force =    -0.00000000    0.00000017    0.06205397
     atom    3 type  2   force =     0.00000000    0.00000006   -0.06205365
     atom    4 type  2   force =     0.00000000   -0.00000006    0.06205365
     atom    5 type  2   force =     0.00000000   -0.00000001   -0.06202652
     atom    6 type  2   force =     0.00000000    0.00000001    0.06202652
     atom    7 type  2   force =     0.00000000   -0.00000010   -0.06202590
     atom    8 type  2   force =     0.00000000    0.00000010    0.06202590
     atom    9 type  1   force =     0.00000000    0.04734734    0.03156903
     atom   10 type  1   force =     0.00000000   -0.04734734   -0.03156903
     atom   11 type  1   force =     0.00000000   -0.04734755    0.03156916
     atom   12 type  1   force =     0.00000000    0.04734755   -0.03156916
     atom   13 type  1   force =    -0.04735229    0.00000001    0.03157354
     atom   14 type  1   force =     0.04735229   -0.00000001   -0.03157354
     atom   15 type  1   force =     0.04735242    0.00000000    0.03157385
     atom   16 type  1   force =    -0.04735242   -0.00000000   -0.03157385
     atom   17 type  1   force =     0.04735242   -0.00000000   -0.03157385
     atom   18 type  1   force =    -0.04735242    0.00000000    0.03157385
     atom   19 type  1   force =    -0.04735229   -0.00000001   -0.03157354
     atom   20 type  1   force =     0.04735229    0.00000001    0.03157354
     atom   21 type  1   force =     0.00000000    0.04734763    0.03156919
     atom   22 type  1   force =     0.00000000   -0.04734763   -0.03156919
     atom   23 type  1   force =     0.00000000   -0.04734728    0.03156900
     atom   24 type  1   force =     0.00000000    0.04734728   -0.03156900

     Total force =     0.287423     Total SCF correction =     0.000232


     Computing stress (Cartesian axis) and pressure

          total   stress  (Ry/bohr**3)                   (kbar)     P=      112.53
   0.00075587   0.00000000   0.00000000          111.19        0.00        0.00
   0.00000000   0.00075600  -0.00000000            0.00      111.21       -0.00
   0.00000000  -0.00000000   0.00078303            0.00       -0.00      115.19


     Writing all to output data dir ./iceVIII/iceVIII.save/ :
     XML data file, charge density, pseudopotentials, collected wavefunctions

     init_run     :      1.19s CPU      1.26s WALL (       1 calls)
     electrons    :     22.49s CPU     22.99s WALL (       1 calls)
     forces       :      0.13s CPU      0.14s WALL (       1 calls)
     stress       :      1.57s CPU      1.58s WALL (       1 calls)

     Called by init_run:
     wfcinit      :      0.85s CPU      0.88s WALL (       1 calls)
     potinit      :      0.02s CPU      0.03s WALL (       1 calls)
     hinit0       :      0.27s CPU      0.29s WALL (       1 calls)

     Called by electrons:
     c_bands      :     20.09s CPU     20.51s WALL (      10 calls)
     sum_band     :      2.28s CPU      2.32s WALL (      10 calls)
     v_of_rho     :      0.08s CPU      0.08s WALL (      11 calls)
     newd         :      0.02s CPU      0.02s WALL (      11 calls)
     mix_rho      :      0.01s CPU      0.02s WALL (      10 calls)

     Called by c_bands:
     init_us_2    :      0.25s CPU      0.26s WALL (     828 calls)
     cegterg      :     18.70s CPU     18.93s WALL (     360 calls)

     Called by *egterg:
     cdiaghg      :      2.30s CPU      2.32s WALL (    1365 calls)
     h_psi        :     14.36s CPU     14.57s WALL (    1401 calls)
     s_psi        :      0.54s CPU      0.55s WALL (    1401 calls)
     g_psi        :      0.05s CPU      0.05s WALL (    1005 calls)

     Called by h_psi:
     h_psi:calbec :      0.73s CPU      0.74s WALL (    1401 calls)
     vloc_psi     :     12.99s CPU     13.18s WALL (    1401 calls)
     add_vuspsi   :      0.57s CPU      0.58s WALL (    1401 calls)

     General routines
     calbec       :      1.03s CPU      1.04s WALL (    1941 calls)
     fft          :      0.30s CPU      0.31s WALL (     129 calls)
     ffts         :      0.00s CPU      0.00s WALL (      10 calls)
     fftw         :     13.79s CPU     13.99s WALL (   87540 calls)

     Parallel routines

     PWSCF        :     26.13s CPU     27.44s WALL


   This run was terminated on:  20: 5: 2  21Mar2026            

=------------------------------------------------------------------------------=
   JOB DONE.
=------------------------------------------------------------------------------=
