
     Program PWSCF v.7.3.1 starts on 31Mar2026 at 18:30:58 

     This program is part of the open-source Quantum ESPRESSO suite
     for quantum simulation of materials; please cite
         "P. Giannozzi et al., J. Phys.:Condens. Matter 21 395502 (2009);
         "P. Giannozzi et al., J. Phys.:Condens. Matter 29 465901 (2017);
         "P. Giannozzi et al., J. Chem. Phys. 152 154105 (2020);
          URL http://www.quantum-espresso.org", 
     in publications or presentations arising from this work. More details at
     http://www.quantum-espresso.org/quote

     Parallel version (MPI), running on   128 processors

     MPI processes distributed on     1 nodes
     499867 MiB available memory on the printing compute node when the environment starts

     Waiting for input...
     Reading input from standard input

     Current dimensions of program PWSCF are:
     Max number of different atomic species (ntypx) = 10
     Max number of k-points (npk) =  40000
     Max angular momentum in pseudopotentials (lmaxx) =  4
     Found identity + ( -0.5000 -0.5000  0.5000) symmetry
     This is a supercell, fractional translations are disabled

     K-points division:     npool     =       4
     R & G space division:  proc/nbgrp/npool/nimage =      32
     Subspace diagonalization in iterative solution of the eigenvalue problem:
     a serial algorithm will be used


     Parallelization info
     --------------------
     sticks:   dense  smooth     PW     G-vecs:    dense   smooth      PW
     Min          70      70     19                 3600     3600     523
     Max          71      71     20                 3606     3606     527
     Sum        2241    2241    621               115293   115293   16829

     Using Slab Decomposition



     bravais-lattice index     =            6
     lattice parameter (alat)  =       8.8494  a.u.
     unit-cell volume          =     999.4666 (a.u.)^3
     number of atoms/cell      =           24
     number of atomic types    =            2
     number of electrons       =        64.00
     number of Kohn-Sham states=           32
     kinetic-energy cutoff     =      90.0000  Ry
     charge density cutoff     =     360.0000  Ry
     scf convergence threshold =      1.0E-07
     mixing beta               =       0.7000
     number of iterations used =            8  plain     mixing
     energy convergence thresh.=      1.0E-04
     force convergence thresh. =      1.0E-04
     Exchange-correlation=  SLA  PW   PBE  PBE
                           (   1   4   3   4   0   0   0)
     nstep                     =           50


     celldm(1)=   8.849415  celldm(2)=   0.000000  celldm(3)=   1.442197
     celldm(4)=   0.000000  celldm(5)=   0.000000  celldm(6)=   0.000000

     crystal axes: (cart. coord. in units of alat)
               a(1) = (   1.000000   0.000000   0.000000 )  
               a(2) = (   0.000000   1.000000   0.000000 )  
               a(3) = (   0.000000   0.000000   1.442197 )  

     reciprocal axes: (cart. coord. in units 2 pi/alat)
               b(1) = (  1.000000  0.000000  0.000000 )  
               b(2) = (  0.000000  1.000000  0.000000 )  
               b(3) = (  0.000000  0.000000  0.693386 )  


     PseudoPot. # 1 for H  read from file:
     ./H.pbe-van_ak.UPF
     MD5 check sum: 077eb6d537518a38cb46c6de387227b7
     Pseudo is Ultrasoft, Zval =  1.0
     Generated by new atomic code, or converted to UPF format
     Using radial grid of  615 points,  1 beta functions with: 
                l(1) =   0
     Q(r) pseudized with  8 coefficients,  rinner =    0.800

     PseudoPot. # 2 for O  read from file:
     ./O.pbe-van_ak.UPF
     MD5 check sum: 78c19812648e8988a0fe644b0f25305e
     Pseudo is Ultrasoft, Zval =  6.0
     Generated by new atomic code, or converted to UPF format
     Using radial grid of  737 points,  4 beta functions with: 
                l(1) =   0
                l(2) =   0
                l(3) =   1
                l(4) =   1
     Q(r) pseudized with  8 coefficients,  rinner =    0.800   0.800   0.800


     atomic species   valence    mass     pseudopotential
     H                 1.00     1.00800     H ( 1.00)
     O                 6.00    16.00000     O ( 1.00)

      4 Sym. Ops., with inversion, found



   Cartesian axes

     site n.     atom                  positions (alat units)
         1        O      tau(   1) = (   0.0000000   0.2500000   0.8781106  )
         2        O      tau(   2) = (   0.0000000   0.7500000   0.5640866  )
         3        O      tau(   3) = (   0.5000000   0.7500000   0.1570120  )
         4        O      tau(   4) = (   0.5000000   0.2500000   1.2851851  )
         5        O      tau(   5) = (   0.0000000   0.7500000   1.2386599  )
         6        O      tau(   6) = (   0.0000000   0.2500000   0.2035373  )
         7        O      tau(   7) = (   0.5000000   0.2500000   0.5175613  )
         8        O      tau(   8) = (   0.5000000   0.7500000   0.9246358  )
         9        H      tau(   9) = (   0.0000000   0.4142500   1.0027885  )
        10        H      tau(  10) = (   0.0000000   0.5857500   0.4394086  )
        11        H      tau(  11) = (   0.5000000   0.5857500   0.2816900  )
        12        H      tau(  12) = (   0.5000000   0.4142500   1.1605072  )
        13        H      tau(  13) = (   0.8357500   0.7500000   1.3633378  )
        14        H      tau(  14) = (   0.1642500   0.2500000   0.0788593  )
        15        H      tau(  15) = (   0.6642500   0.2500000   0.6422392  )
        16        H      tau(  16) = (   0.3357500   0.7500000   0.7999579  )
        17        H      tau(  17) = (   0.6642500   0.7500000   0.7999579  )
        18        H      tau(  18) = (   0.3357500   0.2500000   0.6422392  )
        19        H      tau(  19) = (   0.8357500   0.2500000   0.0788593  )
        20        H      tau(  20) = (   0.1642500   0.7500000   1.3633378  )
        21        H      tau(  21) = (   0.5000000   0.9142500   0.2816900  )
        22        H      tau(  22) = (   0.5000000   0.0857500   1.1605072  )
        23        H      tau(  23) = (   0.0000000   0.0857500   1.0027885  )
        24        H      tau(  24) = (   0.0000000   0.9142500   0.4394086  )

     number of k points=   144

     Number of k-points >= 100: set verbosity='high' to print them.

     Dense  grid:   115293 G-vectors     FFT dimensions: (  54,  54,  80)

     Estimated max dynamical RAM per process >      13.30 MB

     Estimated total dynamical RAM >       1.58 GB

     Initial potential from superposition of free atoms

     starting charge      63.9998, renormalised to      64.0000
     Starting wfcs are   48 randomized atomic wfcs

     total cpu time spent up to now is        1.5 secs

     per-process dynamical memory:    19.6 Mb

     Self-consistent Calculation

     iteration #  1     ecut=    90.00 Ry     beta= 0.70
     Davidson diagonalization with overlap
     ethr =  1.00E-02,  avg # of iterations =  2.0

     total cpu time spent up to now is        3.5 secs

     total energy              =    -274.80899925 Ry
     estimated scf accuracy    <       2.66323870 Ry

     iteration #  2     ecut=    90.00 Ry     beta= 0.70
     Davidson diagonalization with overlap
     ethr =  4.16E-03,  avg # of iterations =  3.0

     total cpu time spent up to now is        6.0 secs

     total energy              =    -275.66223285 Ry
     estimated scf accuracy    <       1.41963131 Ry

     iteration #  3     ecut=    90.00 Ry     beta= 0.70
     Davidson diagonalization with overlap
     ethr =  2.22E-03,  avg # of iterations =  2.0

     total cpu time spent up to now is        7.8 secs

     total energy              =    -275.83258845 Ry
     estimated scf accuracy    <       0.06018634 Ry

     iteration #  4     ecut=    90.00 Ry     beta= 0.70
     Davidson diagonalization with overlap
     ethr =  9.40E-05,  avg # of iterations =  4.2

     total cpu time spent up to now is       10.7 secs

     total energy              =    -275.87799277 Ry
     estimated scf accuracy    <       0.08274170 Ry

     iteration #  5     ecut=    90.00 Ry     beta= 0.70
     Davidson diagonalization with overlap
     ethr =  9.40E-05,  avg # of iterations =  2.0

     total cpu time spent up to now is       12.5 secs

     total energy              =    -275.87875463 Ry
     estimated scf accuracy    <       0.01328926 Ry

     iteration #  6     ecut=    90.00 Ry     beta= 0.70
     Davidson diagonalization with overlap
     ethr =  2.08E-05,  avg # of iterations =  2.4

     total cpu time spent up to now is       14.7 secs

     total energy              =    -275.88216755 Ry
     estimated scf accuracy    <       0.00012676 Ry

     iteration #  7     ecut=    90.00 Ry     beta= 0.70
     Davidson diagonalization with overlap
     ethr =  1.98E-07,  avg # of iterations =  5.0

     total cpu time spent up to now is       18.1 secs

     total energy              =    -275.88239193 Ry
     estimated scf accuracy    <       0.00026410 Ry

     iteration #  8     ecut=    90.00 Ry     beta= 0.70
     Davidson diagonalization with overlap
     ethr =  1.98E-07,  avg # of iterations =  2.0

     total cpu time spent up to now is       19.9 secs

     total energy              =    -275.88238867 Ry
     estimated scf accuracy    <       0.00005885 Ry

     iteration #  9     ecut=    90.00 Ry     beta= 0.70
     Davidson diagonalization with overlap
     ethr =  9.19E-08,  avg # of iterations =  2.0

     total cpu time spent up to now is       21.8 secs

     total energy              =    -275.88239447 Ry
     estimated scf accuracy    <       0.00000730 Ry

     iteration # 10     ecut=    90.00 Ry     beta= 0.70
     Davidson diagonalization with overlap
     ethr =  1.14E-08,  avg # of iterations =  3.3

     total cpu time spent up to now is       24.0 secs

     End of self-consistent calculation

     Number of k-points >= 100: set verbosity='high' to print the bands.

     highest occupied level (ev):    -0.1970

!    total energy              =    -275.88239686 Ry
     estimated scf accuracy    <       0.00000003 Ry

     The total energy is the sum of the following terms:
     one-electron contribution =    -126.45757809 Ry
     hartree contribution      =      90.43622510 Ry
     xc contribution           =     -68.14721337 Ry
     ewald contribution        =    -171.71383050 Ry

     convergence has been achieved in  10 iterations

     Forces acting on atoms (cartesian axes, Ry/au):

     atom    1 type  2   force =     0.00000000    0.00000047   -0.05115407
     atom    2 type  2   force =     0.00000000   -0.00000047    0.05115407
     atom    3 type  2   force =     0.00000000    0.00000034   -0.05115419
     atom    4 type  2   force =     0.00000000   -0.00000034    0.05115419
     atom    5 type  2   force =     0.00000000    0.00000020   -0.05112473
     atom    6 type  2   force =     0.00000000   -0.00000020    0.05112473
     atom    7 type  2   force =     0.00000000    0.00000018   -0.05112490
     atom    8 type  2   force =     0.00000000   -0.00000018    0.05112490
     atom    9 type  1   force =     0.00000000    0.03912389    0.02606319
     atom   10 type  1   force =     0.00000000   -0.03912389   -0.02606319
     atom   11 type  1   force =     0.00000000   -0.03912356    0.02606298
     atom   12 type  1   force =     0.00000000    0.03912356   -0.02606298
     atom   13 type  1   force =    -0.03913208   -0.00000000    0.02606644
     atom   14 type  1   force =     0.03913208    0.00000000   -0.02606644
     atom   15 type  1   force =     0.03913216    0.00000003    0.02606638
     atom   16 type  1   force =    -0.03913216   -0.00000003   -0.02606638
     atom   17 type  1   force =     0.03913216   -0.00000003   -0.02606638
     atom   18 type  1   force =    -0.03913216    0.00000003    0.02606638
     atom   19 type  1   force =    -0.03913208    0.00000000   -0.02606644
     atom   20 type  1   force =     0.03913208   -0.00000000    0.02606644
     atom   21 type  1   force =     0.00000000    0.03912361    0.02606306
     atom   22 type  1   force =     0.00000000   -0.03912361   -0.02606306
     atom   23 type  1   force =     0.00000000   -0.03912378    0.02606306
     atom   24 type  1   force =     0.00000000    0.03912378   -0.02606306

     Total force =     0.237251     Total SCF correction =     0.000149


     Computing stress (Cartesian axis) and pressure

          total   stress  (Ry/bohr**3)                   (kbar)     P=       90.98
   0.00061133   0.00000000   0.00000000           89.93        0.00        0.00
   0.00000000   0.00061153  -0.00000000            0.00       89.96       -0.00
   0.00000000  -0.00000000   0.00063252            0.00       -0.00       93.05


     BFGS Geometry Optimization
     Energy error            =      0.0E+00 Ry
     Gradient error          =      5.1E-02 Ry/Bohr

     number of scf cycles    =   1
     number of bfgs steps    =   0

     energy             new  =    -275.8823968642 Ry

     new trust radius        =       0.0511541930 bohr
     new conv_thr            =       0.0000001000 Ry


ATOMIC_POSITIONS (crystal)
O                0.0000000000        0.2500000529        0.6048619061
O                0.0000000000        0.7499999471        0.3951381229
O                0.5000000000        0.7500000382        0.1048618677
O                0.5000000000        0.2499999618        0.8951381033
O                0.0000000000        0.7500000230        0.8548642051
O                0.0000000000        0.2499999770        0.1451358239
O                0.5000000000        0.2500000206        0.3548641633
O                0.5000000000        0.7499999794        0.6451358077
H                0.0000000000        0.4186710563        0.6973621631
H                0.0000000000        0.5813289137        0.3026378369
H                0.5000000000        0.5813289510        0.1973621471
H                0.5000000000        0.4186710190        0.8026378529
H                0.8313279875        0.7499999996        0.9473624183
H                0.1686719825        0.2500000004        0.0526375817
H                0.6686720217        0.2500000030        0.4473624135
H                0.3313280083        0.7499999970        0.5526375865
H                0.6686720217        0.7499999970        0.5526375865
H                0.3313280083        0.2500000030        0.4473624135
H                0.8313279875        0.2500000004        0.0526375817
H                0.1686719825        0.7499999996        0.9473624183
H                0.5000000000        0.9186710556        0.1973621536
H                0.5000000000        0.0813289744        0.8026378464
H                0.0000000000        0.0813289555        0.6973621530
H                0.0000000000        0.9186710745        0.3026378470



     Writing config-only to output data dir ./iceVIII/iceVIII.save/ :
     XML data file
     NEW-OLD atomic charge density approx. for the potential

     total cpu time spent up to now is       25.9 secs

     per-process dynamical memory:    22.3 Mb

     Self-consistent Calculation

     iteration #  1     ecut=    90.00 Ry     beta= 0.70
     Davidson diagonalization with overlap
     ethr =  1.00E-06,  avg # of iterations =  8.0

     total cpu time spent up to now is       30.6 secs

     total energy              =    -275.88813587 Ry
     estimated scf accuracy    <       0.02051360 Ry

     iteration #  2     ecut=    90.00 Ry     beta= 0.70
     Davidson diagonalization with overlap
     ethr =  3.21E-05,  avg # of iterations =  3.0

     total cpu time spent up to now is       33.0 secs

     total energy              =    -275.89404127 Ry
     estimated scf accuracy    <       0.00788645 Ry

     iteration #  3     ecut=    90.00 Ry     beta= 0.70
     Davidson diagonalization with overlap
     ethr =  1.23E-05,  avg # of iterations =  2.0

     total cpu time spent up to now is       34.9 secs

     total energy              =    -275.89519165 Ry
     estimated scf accuracy    <       0.00019338 Ry

     iteration #  4     ecut=    90.00 Ry     beta= 0.70
     Davidson diagonalization with overlap
     ethr =  3.02E-07,  avg # of iterations =  4.1

     total cpu time spent up to now is       37.8 secs

     total energy              =    -275.89534007 Ry
     estimated scf accuracy    <       0.00020157 Ry

     iteration #  5     ecut=    90.00 Ry     beta= 0.70
     Davidson diagonalization with overlap
     ethr =  3.02E-07,  avg # of iterations =  2.0

     total cpu time spent up to now is       39.8 secs

     total energy              =    -275.89538098 Ry
     estimated scf accuracy    <       0.00000072 Ry

     iteration #  6     ecut=    90.00 Ry     beta= 0.70
     Davidson diagonalization with overlap
     ethr =  1.12E-09,  avg # of iterations =  5.2

     total cpu time spent up to now is       43.6 secs

     total energy              =    -275.89538082 Ry
     estimated scf accuracy    <       0.00000788 Ry

     iteration #  7     ecut=    90.00 Ry     beta= 0.70
     Davidson diagonalization with overlap
     ethr =  1.12E-09,  avg # of iterations =  4.6

     total cpu time spent up to now is       46.6 secs

     End of self-consistent calculation

     Number of k-points >= 100: set verbosity='high' to print the bands.

     highest occupied level (ev):    -0.1273

!    total energy              =    -275.89538238 Ry
     estimated scf accuracy    <          9.3E-09 Ry

     The total energy is the sum of the following terms:
     one-electron contribution =    -121.81525485 Ry
     hartree contribution      =      88.39716070 Ry
     xc contribution           =     -67.63078287 Ry
     ewald contribution        =    -174.84650536 Ry

     convergence has been achieved in   7 iterations

     Forces acting on atoms (cartesian axes, Ry/au):

     atom    1 type  2   force =     0.00000000   -0.00000041    0.03377240
     atom    2 type  2   force =     0.00000000    0.00000041   -0.03377240
     atom    3 type  2   force =     0.00000000   -0.00000031    0.03377255
     atom    4 type  2   force =     0.00000000    0.00000031   -0.03377255
     atom    5 type  2   force =    -0.00000000   -0.00000002    0.03374047
     atom    6 type  2   force =    -0.00000000    0.00000002   -0.03374047
     atom    7 type  2   force =     0.00000000   -0.00000003    0.03374060
     atom    8 type  2   force =     0.00000000    0.00000003   -0.03374060
     atom    9 type  1   force =     0.00000000   -0.00922326   -0.01525760
     atom   10 type  1   force =     0.00000000    0.00922326    0.01525760
     atom   11 type  1   force =     0.00000000    0.00922337   -0.01525772
     atom   12 type  1   force =     0.00000000   -0.00922337    0.01525772
     atom   13 type  1   force =     0.00922375    0.00000002   -0.01525022
     atom   14 type  1   force =    -0.00922375   -0.00000002    0.01525022
     atom   15 type  1   force =    -0.00922385    0.00000002   -0.01525027
     atom   16 type  1   force =     0.00922385   -0.00000002    0.01525027
     atom   17 type  1   force =    -0.00922385   -0.00000002    0.01525027
     atom   18 type  1   force =     0.00922385    0.00000002   -0.01525027
     atom   19 type  1   force =     0.00922375   -0.00000002    0.01525022
     atom   20 type  1   force =    -0.00922375    0.00000002   -0.01525022
     atom   21 type  1   force =     0.00000000   -0.00922310   -0.01525754
     atom   22 type  1   force =     0.00000000    0.00922310    0.01525754
     atom   23 type  1   force =     0.00000000    0.00922361   -0.01525784
     atom   24 type  1   force =     0.00000000   -0.00922361    0.01525784

     Total force =     0.119164     Total SCF correction =     0.000163


     Computing stress (Cartesian axis) and pressure

          total   stress  (Ry/bohr**3)                   (kbar)     P=       -8.74
  -0.00000984   0.00000000   0.00000000           -1.45        0.00        0.00
   0.00000000  -0.00000956   0.00000000            0.00       -1.41        0.00
   0.00000000   0.00000000  -0.00015883            0.00        0.00      -23.36

     Energy error            =      1.3E-02 Ry
     Gradient error          =      3.4E-02 Ry/Bohr

     number of scf cycles    =   2
     number of bfgs steps    =   1

     energy             old  =    -275.8823968642 Ry
     energy             new  =    -275.8953823799 Ry

     CASE: energy            _new < energy            _old

     new trust radius        =       0.0221629466 bohr
     new conv_thr            =       0.0000001000 Ry


ATOMIC_POSITIONS (crystal)
O                0.0000000000        0.2500000221        0.6065984518
O                0.0000000000        0.7499999779        0.3934015772
O                0.5000000000        0.7500000149        0.1065984218
O                0.5000000000        0.2499999851        0.8934015492
O                0.0000000000        0.7500000215        0.8565990814
O                0.0000000000        0.2499999785        0.1434009476
O                0.5000000000        0.2500000190        0.3565990464
O                0.5000000000        0.7499999810        0.6434009246
H                0.0000000000        0.4180400916        0.6965819453
H                0.0000000000        0.5819598784        0.3034180547
H                0.5000000000        0.5819599248        0.1965819229
H                0.5000000000        0.4180400452        0.8034180771
H                0.8319589727        0.7500000012        0.9465826011
H                0.1680409973        0.2499999988        0.0534173989
H                0.6680410284        0.2500000046        0.4465825937
H                0.3319590016        0.7499999954        0.5534174063
H                0.6680410284        0.7499999954        0.5534174063
H                0.3319590016        0.2500000046        0.4465825937
H                0.8319589727        0.2499999988        0.0534173989
H                0.1680409973        0.7500000012        0.9465826011
H                0.5000000000        0.9180401022        0.1965819388
H                0.5000000000        0.0819599278        0.8034180612
H                0.0000000000        0.0819599474        0.6965819225
H                0.0000000000        0.9180400826        0.3034180775



     Writing config-only to output data dir ./iceVIII/iceVIII.save/ :
     XML data file
     NEW-OLD atomic charge density approx. for the potential

     total cpu time spent up to now is       48.4 secs

     per-process dynamical memory:    22.8 Mb

     Self-consistent Calculation

     iteration #  1     ecut=    90.00 Ry     beta= 0.70
     Davidson diagonalization with overlap
     ethr =  1.00E-06,  avg # of iterations =  5.0

     total cpu time spent up to now is       52.2 secs

     total energy              =    -275.90004433 Ry
     estimated scf accuracy    <       0.00216457 Ry

     iteration #  2     ecut=    90.00 Ry     beta= 0.70
     Davidson diagonalization with overlap
     ethr =  3.38E-06,  avg # of iterations =  3.0

     total cpu time spent up to now is       54.5 secs

     total energy              =    -275.90067148 Ry
     estimated scf accuracy    <       0.00074773 Ry

     iteration #  3     ecut=    90.00 Ry     beta= 0.70
     Davidson diagonalization with overlap
     ethr =  1.17E-06,  avg # of iterations =  2.0

     total cpu time spent up to now is       56.4 secs

     total energy              =    -275.90077439 Ry
     estimated scf accuracy    <       0.00001903 Ry

     iteration #  4     ecut=    90.00 Ry     beta= 0.70
     Davidson diagonalization with overlap
     ethr =  2.97E-08,  avg # of iterations =  4.1

     total cpu time spent up to now is       59.3 secs

     total energy              =    -275.90078759 Ry
     estimated scf accuracy    <       0.00001871 Ry

     iteration #  5     ecut=    90.00 Ry     beta= 0.70
     Davidson diagonalization with overlap
     ethr =  2.92E-08,  avg # of iterations =  2.0

     total cpu time spent up to now is       61.4 secs

     total energy              =    -275.90079191 Ry
     estimated scf accuracy    <       0.00000012 Ry

     iteration #  6     ecut=    90.00 Ry     beta= 0.70
     Davidson diagonalization with overlap
     ethr =  1.89E-10,  avg # of iterations =  4.3

     total cpu time spent up to now is       64.5 secs

     total energy              =    -275.90079188 Ry
     estimated scf accuracy    <       0.00000059 Ry

     iteration #  7     ecut=    90.00 Ry     beta= 0.70
     Davidson diagonalization with overlap
     ethr =  1.89E-10,  avg # of iterations =  3.0

     total cpu time spent up to now is       67.0 secs

     End of self-consistent calculation

     Number of k-points >= 100: set verbosity='high' to print the bands.

     highest occupied level (ev):    -0.1435

!    total energy              =    -275.90079196 Ry
     estimated scf accuracy    <       0.00000001 Ry

     The total energy is the sum of the following terms:
     one-electron contribution =    -123.14400283 Ry
     hartree contribution      =      88.98003913 Ry
     xc contribution           =     -67.78467260 Ry
     ewald contribution        =    -173.95215565 Ry

     convergence has been achieved in   7 iterations

     Forces acting on atoms (cartesian axes, Ry/au):

     atom    1 type  2   force =     0.00000000    0.00000007    0.00717819
     atom    2 type  2   force =     0.00000000   -0.00000007   -0.00717819
     atom    3 type  2   force =    -0.00000000    0.00000005    0.00717805
     atom    4 type  2   force =    -0.00000000   -0.00000005   -0.00717805
     atom    5 type  2   force =     0.00000000   -0.00000003    0.00720680
     atom    6 type  2   force =     0.00000000    0.00000003   -0.00720680
     atom    7 type  2   force =     0.00000000   -0.00000002    0.00720683
     atom    8 type  2   force =     0.00000000    0.00000002   -0.00720683
     atom    9 type  1   force =     0.00000000    0.00204246   -0.00243851
     atom   10 type  1   force =     0.00000000   -0.00204246    0.00243851
     atom   11 type  1   force =     0.00000000   -0.00204261   -0.00243839
     atom   12 type  1   force =     0.00000000    0.00204261    0.00243839
     atom   13 type  1   force =    -0.00203766    0.00000001   -0.00243902
     atom   14 type  1   force =     0.00203766   -0.00000001    0.00243902
     atom   15 type  1   force =     0.00203767    0.00000001   -0.00243901
     atom   16 type  1   force =    -0.00203767   -0.00000001    0.00243901
     atom   17 type  1   force =     0.00203767   -0.00000001    0.00243901
     atom   18 type  1   force =    -0.00203767    0.00000001   -0.00243901
     atom   19 type  1   force =    -0.00203766   -0.00000001    0.00243902
     atom   20 type  1   force =     0.00203766    0.00000001   -0.00243902
     atom   21 type  1   force =     0.00000000    0.00204255   -0.00243845
     atom   22 type  1   force =     0.00000000   -0.00204255    0.00243845
     atom   23 type  1   force =     0.00000000   -0.00204254   -0.00243843
     atom   24 type  1   force =     0.00000000    0.00204254    0.00243843

     Total force =     0.023992     Total SCF correction =     0.000191


     Computing stress (Cartesian axis) and pressure

          total   stress  (Ry/bohr**3)                   (kbar)     P=       18.54
   0.00014497   0.00000000   0.00000000           21.33        0.00        0.00
   0.00000000   0.00014516  -0.00000000            0.00       21.35       -0.00
   0.00000000  -0.00000000   0.00008792            0.00       -0.00       12.93

     Energy error            =      5.4E-03 Ry
     Gradient error          =      7.2E-03 Ry/Bohr

     number of scf cycles    =   3
     number of bfgs steps    =   2

     energy             old  =    -275.8953823799 Ry
     energy             new  =    -275.9007919562 Ry

     CASE: energy            _new < energy            _old

     new trust radius        =       0.0073849356 bohr
     new conv_thr            =       0.0000000541 Ry


ATOMIC_POSITIONS (crystal)
O                0.0000000000        0.2500000324        0.6071743512
O                0.0000000000        0.7499999676        0.3928256778
O                0.5000000000        0.7500000226        0.1071743076
O                0.5000000000        0.2499999774        0.8928256634
O                0.0000000000        0.7500000182        0.8571777176
O                0.0000000000        0.2499999818        0.1428223114
O                0.5000000000        0.2500000162        0.3571776852
O                0.5000000000        0.7499999838        0.6428222858
H                0.0000000000        0.4183920321        0.6964000950
H                0.0000000000        0.5816079379        0.3035999050
H                0.5000000000        0.5816079649        0.1964000835
H                0.5000000000        0.4183920051        0.8035999165
H                0.8316076645        0.7500000025        0.9464006988
H                0.1683923055        0.2499999975        0.0535993012
H                0.6683923378        0.2500000058        0.4464006924
H                0.3316076922        0.7499999942        0.5535993076
H                0.6683923378        0.7499999942        0.5535993076
H                0.3316076922        0.2500000058        0.4464006924
H                0.8316076645        0.2499999975        0.0535993012
H                0.1683923055        0.7500000025        0.9464006988
H                0.5000000000        0.9183920538        0.1964000937
H                0.5000000000        0.0816079762        0.8035999063
H                0.0000000000        0.0816079958        0.6964000796
H                0.0000000000        0.9183920342        0.3035999204



     Writing config-only to output data dir ./iceVIII/iceVIII.save/ :
     XML data file
     NEW-OLD atomic charge density approx. for the potential

     total cpu time spent up to now is       68.8 secs

     per-process dynamical memory:    22.8 Mb

     Self-consistent Calculation

     iteration #  1     ecut=    90.00 Ry     beta= 0.70
     Davidson diagonalization with overlap
     ethr =  1.00E-06,  avg # of iterations =  3.1

     total cpu time spent up to now is       71.5 secs

     total energy              =    -275.90117256 Ry
     estimated scf accuracy    <       0.00009892 Ry

     iteration #  2     ecut=    90.00 Ry     beta= 0.70
     Davidson diagonalization with overlap
     ethr =  1.55E-07,  avg # of iterations =  2.8

     total cpu time spent up to now is       73.7 secs

     total energy              =    -275.90120239 Ry
     estimated scf accuracy    <       0.00002669 Ry

     iteration #  3     ecut=    90.00 Ry     beta= 0.70
     Davidson diagonalization with overlap
     ethr =  4.17E-08,  avg # of iterations =  2.0

     total cpu time spent up to now is       75.7 secs

     total energy              =    -275.90120598 Ry
     estimated scf accuracy    <       0.00000084 Ry

     iteration #  4     ecut=    90.00 Ry     beta= 0.70
     Davidson diagonalization with overlap
     ethr =  1.32E-09,  avg # of iterations =  4.6

     total cpu time spent up to now is       78.4 secs

     total energy              =    -275.90120628 Ry
     estimated scf accuracy    <       0.00000067 Ry

     iteration #  5     ecut=    90.00 Ry     beta= 0.70
     Davidson diagonalization with overlap
     ethr =  1.04E-09,  avg # of iterations =  2.8

     total cpu time spent up to now is       80.6 secs

     End of self-consistent calculation

     Number of k-points >= 100: set verbosity='high' to print the bands.

     highest occupied level (ev):    -0.1424

!    total energy              =    -275.90120647 Ry
     estimated scf accuracy    <       0.00000003 Ry

     The total energy is the sum of the following terms:
     one-electron contribution =    -123.31383170 Ry
     hartree contribution      =      89.05589465 Ry
     xc contribution           =     -67.80693076 Ry
     ewald contribution        =    -173.83633867 Ry

     convergence has been achieved in   5 iterations

     Forces acting on atoms (cartesian axes, Ry/au):

     atom    1 type  2   force =     0.00000000   -0.00000013    0.00143042
     atom    2 type  2   force =     0.00000000    0.00000013   -0.00143042
     atom    3 type  2   force =     0.00000000   -0.00000010    0.00143058
     atom    4 type  2   force =     0.00000000    0.00000010   -0.00143058
     atom    5 type  2   force =     0.00000000   -0.00000002    0.00141760
     atom    6 type  2   force =     0.00000000    0.00000002   -0.00141760
     atom    7 type  2   force =     0.00000000   -0.00000002    0.00141760
     atom    8 type  2   force =     0.00000000    0.00000002   -0.00141760
     atom    9 type  1   force =     0.00000000    0.00278257    0.00024140
     atom   10 type  1   force =     0.00000000   -0.00278257   -0.00024140
     atom   11 type  1   force =     0.00000000   -0.00278243    0.00024128
     atom   12 type  1   force =     0.00000000    0.00278243   -0.00024128
     atom   13 type  1   force =    -0.00279377    0.00000001    0.00025499
     atom   14 type  1   force =     0.00279377   -0.00000001   -0.00025499
     atom   15 type  1   force =     0.00279377    0.00000001    0.00025500
     atom   16 type  1   force =    -0.00279377   -0.00000001   -0.00025500
     atom   17 type  1   force =     0.00279377   -0.00000001   -0.00025500
     atom   18 type  1   force =    -0.00279377    0.00000001    0.00025500
     atom   19 type  1   force =    -0.00279377   -0.00000001   -0.00025499
     atom   20 type  1   force =     0.00279377    0.00000001    0.00025499
     atom   21 type  1   force =     0.00000000    0.00278251    0.00024133
     atom   22 type  1   force =     0.00000000   -0.00278251   -0.00024133
     atom   23 type  1   force =     0.00000000   -0.00278246    0.00024134
     atom   24 type  1   force =     0.00000000    0.00278246   -0.00024134

     Total force =     0.011899     Total SCF correction =     0.000056


     Computing stress (Cartesian axis) and pressure

          total   stress  (Ry/bohr**3)                   (kbar)     P=       21.98
   0.00015814   0.00000000   0.00000000           23.26        0.00        0.00
   0.00000000   0.00015831   0.00000000            0.00       23.29        0.00
   0.00000000   0.00000000   0.00013170            0.00        0.00       19.37

     Energy error            =      4.1E-04 Ry
     Gradient error          =      2.8E-03 Ry/Bohr

     number of scf cycles    =   4
     number of bfgs steps    =   3

     energy             old  =    -275.9007919562 Ry
     energy             new  =    -275.9012064745 Ry

     CASE: energy            _new < energy            _old

     new trust radius        =       0.0052818812 bohr
     new conv_thr            =       0.0000000041 Ry


ATOMIC_POSITIONS (crystal)
O                0.0000000000        0.2500000109        0.6075881916
O                0.0000000000        0.7499999891        0.3924118374
O                0.5000000000        0.7500000064        0.1075881638
O                0.5000000000        0.2499999936        0.8924118072
O                0.0000000000        0.7500000144        0.8575906633
O                0.0000000000        0.2499999856        0.1424093657
O                0.5000000000        0.2500000128        0.3575906316
O                0.5000000000        0.7499999872        0.6424093394
H                0.0000000000        0.4189643485        0.6963431977
H                0.0000000000        0.5810356215        0.3036568023
H                0.5000000000        0.5810356673        0.1963431744
H                0.5000000000        0.4189643027        0.8036568256
H                0.8310335738        0.7500000048        0.9463454486
H                0.1689663962        0.2499999952        0.0536545514
H                0.6689664274        0.2500000079        0.4463454433
H                0.3310336026        0.7499999921        0.5536545567
H                0.6689664274        0.7499999921        0.5536545567
H                0.3310336026        0.2500000079        0.4463454433
H                0.8310335738        0.2499999952        0.0536545514
H                0.1689663962        0.7500000048        0.9463454486
H                0.5000000000        0.9189643642        0.1963431891
H                0.5000000000        0.0810356658        0.8036568109
H                0.0000000000        0.0810356964        0.6963431762
H                0.0000000000        0.9189643336        0.3036568238



     Writing config-only to output data dir ./iceVIII/iceVIII.save/ :
     XML data file
     NEW-OLD atomic charge density approx. for the potential

     total cpu time spent up to now is       82.4 secs

     per-process dynamical memory:    22.8 Mb

     Self-consistent Calculation

     iteration #  1     ecut=    90.00 Ry     beta= 0.70
     Davidson diagonalization with overlap
     ethr =  1.00E-06,  avg # of iterations =  3.0

     Threshold (ethr) on eigenvalues was too large:
     Diagonalizing with lowered threshold

     Davidson diagonalization with overlap
     ethr =  4.22E-08,  avg # of iterations =  2.0

     total cpu time spent up to now is       86.6 secs

     total energy              =    -275.90138475 Ry
     estimated scf accuracy    <       0.00002830 Ry

     iteration #  2     ecut=    90.00 Ry     beta= 0.70
     Davidson diagonalization with overlap
     ethr =  4.42E-08,  avg # of iterations =  2.0

     total cpu time spent up to now is       88.5 secs

     total energy              =    -275.90138879 Ry
     estimated scf accuracy    <       0.00000138 Ry

     iteration #  3     ecut=    90.00 Ry     beta= 0.70
     Davidson diagonalization with overlap
     ethr =  2.15E-09,  avg # of iterations =  2.1

     total cpu time spent up to now is       90.6 secs

     total energy              =    -275.90138910 Ry
     estimated scf accuracy    <       0.00000026 Ry

     iteration #  4     ecut=    90.00 Ry     beta= 0.70
     Davidson diagonalization with overlap
     ethr =  4.06E-10,  avg # of iterations =  2.0

     total cpu time spent up to now is       92.5 secs

     total energy              =    -275.90138916 Ry
     estimated scf accuracy    <       0.00000002 Ry

     iteration #  5     ecut=    90.00 Ry     beta= 0.70
     Davidson diagonalization with overlap
     ethr =  2.35E-11,  avg # of iterations =  2.4

     total cpu time spent up to now is       94.5 secs

     total energy              =    -275.90138916 Ry
     estimated scf accuracy    <          4.2E-09 Ry

     iteration #  6     ecut=    90.00 Ry     beta= 0.70
     Davidson diagonalization with overlap
     ethr =  6.56E-12,  avg # of iterations =  2.2

     total cpu time spent up to now is       96.5 secs

     End of self-consistent calculation

     Number of k-points >= 100: set verbosity='high' to print the bands.

     highest occupied level (ev):    -0.1387

!    total energy              =    -275.90138916 Ry
     estimated scf accuracy    <          9.3E-11 Ry

     The total energy is the sum of the following terms:
     one-electron contribution =    -123.25732784 Ry
     hartree contribution      =      89.03243675 Ry
     xc contribution           =     -67.80431738 Ry
     ewald contribution        =    -173.87218070 Ry

     convergence has been achieved in   6 iterations

     Forces acting on atoms (cartesian axes, Ry/au):

     atom    1 type  2   force =     0.00000000    0.00000021   -0.00038415
     atom    2 type  2   force =     0.00000000   -0.00000021    0.00038415
     atom    3 type  2   force =     0.00000000    0.00000016   -0.00038425
     atom    4 type  2   force =     0.00000000   -0.00000016    0.00038425
     atom    5 type  2   force =     0.00000000   -0.00000002   -0.00035642
     atom    6 type  2   force =     0.00000000    0.00000002    0.00035642
     atom    7 type  2   force =     0.00000000   -0.00000002   -0.00035644
     atom    8 type  2   force =     0.00000000    0.00000002    0.00035644
     atom    9 type  1   force =     0.00000000    0.00134361    0.00105669
     atom   10 type  1   force =     0.00000000   -0.00134361   -0.00105669
     atom   11 type  1   force =     0.00000000   -0.00134386    0.00105689
     atom   12 type  1   force =     0.00000000    0.00134386   -0.00105689
     atom   13 type  1   force =    -0.00133388    0.00000000    0.00105236
     atom   14 type  1   force =     0.00133388   -0.00000000   -0.00105236
     atom   15 type  1   force =     0.00133388    0.00000000    0.00105237
     atom   16 type  1   force =    -0.00133388   -0.00000000   -0.00105237
     atom   17 type  1   force =     0.00133388   -0.00000000   -0.00105237
     atom   18 type  1   force =    -0.00133388    0.00000000    0.00105237
     atom   19 type  1   force =    -0.00133388   -0.00000000   -0.00105236
     atom   20 type  1   force =     0.00133388    0.00000000    0.00105236
     atom   21 type  1   force =    -0.00000000    0.00134370    0.00105677
     atom   22 type  1   force =    -0.00000000   -0.00134370   -0.00105677
     atom   23 type  1   force =     0.00000000   -0.00134382    0.00105686
     atom   24 type  1   force =     0.00000000    0.00134382   -0.00105686

     Total force =     0.006897     Total SCF correction =     0.000010


     Computing stress (Cartesian axis) and pressure

          total   stress  (Ry/bohr**3)                   (kbar)     P=       20.92
   0.00014346   0.00000000   0.00000000           21.10        0.00        0.00
   0.00000000   0.00014384  -0.00000000            0.00       21.16       -0.00
   0.00000000  -0.00000000   0.00013932            0.00       -0.00       20.49

     Energy error            =      1.8E-04 Ry
     Gradient error          =      1.3E-03 Ry/Bohr

     number of scf cycles    =   5
     number of bfgs steps    =   4

     energy             old  =    -275.9012064745 Ry
     energy             new  =    -275.9013891592 Ry

     CASE: energy            _new < energy            _old

     new trust radius        =       0.0027364025 bohr
     new conv_thr            =       0.0000000018 Ry


ATOMIC_POSITIONS (crystal)
O                0.0000000000        0.2500000412        0.6077413024
O                0.0000000000        0.7499999588        0.3922587266
O                0.5000000000        0.7500000293        0.1077412638
O                0.5000000000        0.2499999707        0.8922587072
O                0.0000000000        0.7500000105        0.8577469600
O                0.0000000000        0.2499999895        0.1422530690
O                0.5000000000        0.2500000097        0.3577469271
O                0.5000000000        0.7499999903        0.6422530439
H                0.0000000000        0.4192639004        0.6963962616
H                0.0000000000        0.5807360696        0.3036037384
H                0.5000000000        0.5807360763        0.1963962593
H                0.5000000000        0.4192638937        0.8036037407
H                0.8307354259        0.7500000058        0.9463982458
H                0.1692645441        0.2499999942        0.0536017542
H                0.6692645752        0.2500000086        0.4463982418
H                0.3307354548        0.7499999914        0.5536017582
H                0.6692645752        0.7499999914        0.5536017582
H                0.3307354548        0.2500000086        0.4463982418
H                0.8307354259        0.2499999942        0.0536017542
H                0.1692645441        0.7500000058        0.9463982458
H                0.5000000000        0.9192639321        0.1963962609
H                0.5000000000        0.0807360979        0.8036037391
H                0.0000000000        0.0807361138        0.6963962575
H                0.0000000000        0.9192639162        0.3036037425



     Writing config-only to output data dir ./iceVIII/iceVIII.save/ :
     XML data file
     NEW-OLD atomic charge density approx. for the potential

     total cpu time spent up to now is       98.3 secs

     per-process dynamical memory:    23.3 Mb

     Self-consistent Calculation

     iteration #  1     ecut=    90.00 Ry     beta= 0.70
     Davidson diagonalization with overlap
     ethr =  1.00E-06,  avg # of iterations =  2.0

     Threshold (ethr) on eigenvalues was too large:
     Diagonalizing with lowered threshold

     Davidson diagonalization with overlap
     ethr =  7.66E-09,  avg # of iterations =  3.9

     total cpu time spent up to now is      102.8 secs

     total energy              =    -275.90142533 Ry
     estimated scf accuracy    <       0.00000677 Ry

     iteration #  2     ecut=    90.00 Ry     beta= 0.70
     Davidson diagonalization with overlap
     ethr =  1.06E-08,  avg # of iterations =  2.0

     total cpu time spent up to now is      104.8 secs

     total energy              =    -275.90142651 Ry
     estimated scf accuracy    <       0.00000095 Ry

     iteration #  3     ecut=    90.00 Ry     beta= 0.70
     Davidson diagonalization with overlap
     ethr =  1.49E-09,  avg # of iterations =  2.0

     total cpu time spent up to now is      106.9 secs

     total energy              =    -275.90142670 Ry
     estimated scf accuracy    <       0.00000004 Ry

     iteration #  4     ecut=    90.00 Ry     beta= 0.70
     Davidson diagonalization with overlap
     ethr =  6.56E-11,  avg # of iterations =  2.2

     total cpu time spent up to now is      108.8 secs

     total energy              =    -275.90142670 Ry
     estimated scf accuracy    <          9.7E-09 Ry

     iteration #  5     ecut=    90.00 Ry     beta= 0.70
     Davidson diagonalization with overlap
     ethr =  1.51E-11,  avg # of iterations =  2.6

     total cpu time spent up to now is      110.9 secs

     End of self-consistent calculation

     Number of k-points >= 100: set verbosity='high' to print the bands.

     highest occupied level (ev):    -0.1358

!    total energy              =    -275.90142671 Ry
     estimated scf accuracy    <          6.0E-10 Ry

     The total energy is the sum of the following terms:
     one-electron contribution =    -123.16144060 Ry
     hartree contribution      =      88.99035188 Ry
     xc contribution           =     -67.79564164 Ry
     ewald contribution        =    -173.93469634 Ry

     convergence has been achieved in   5 iterations

     Forces acting on atoms (cartesian axes, Ry/au):

     atom    1 type  2   force =     0.00000000   -0.00000035    0.00004726
     atom    2 type  2   force =     0.00000000    0.00000035   -0.00004726
     atom    3 type  2   force =     0.00000000   -0.00000026    0.00004739
     atom    4 type  2   force =     0.00000000    0.00000026   -0.00004739
     atom    5 type  2   force =    -0.00000000   -0.00000000    0.00003182
     atom    6 type  2   force =    -0.00000000    0.00000000   -0.00003182
     atom    7 type  2   force =     0.00000000   -0.00000000    0.00003183
     atom    8 type  2   force =     0.00000000    0.00000000   -0.00003183
     atom    9 type  1   force =     0.00000000    0.00007882    0.00079874
     atom   10 type  1   force =     0.00000000   -0.00007882   -0.00079874
     atom   11 type  1   force =     0.00000000   -0.00007849    0.00079849
     atom   12 type  1   force =     0.00000000    0.00007849   -0.00079849
     atom   13 type  1   force =    -0.00009144    0.00000001    0.00081425
     atom   14 type  1   force =     0.00009144   -0.00000001   -0.00081425
     atom   15 type  1   force =     0.00009144    0.00000001    0.00081425
     atom   16 type  1   force =    -0.00009144   -0.00000001   -0.00081425
     atom   17 type  1   force =     0.00009144   -0.00000001   -0.00081425
     atom   18 type  1   force =    -0.00009144    0.00000001    0.00081425
     atom   19 type  1   force =    -0.00009144   -0.00000001   -0.00081425
     atom   20 type  1   force =     0.00009144    0.00000001    0.00081425
     atom   21 type  1   force =     0.00000000    0.00007872    0.00079865
     atom   22 type  1   force =     0.00000000   -0.00007872   -0.00079865
     atom   23 type  1   force =     0.00000000   -0.00007852    0.00079852
     atom   24 type  1   force =     0.00000000    0.00007852   -0.00079852

     Total force =     0.003246     Total SCF correction =     0.000009


     Computing stress (Cartesian axis) and pressure

          total   stress  (Ry/bohr**3)                   (kbar)     P=       19.01
   0.00012834   0.00000000   0.00000000           18.88        0.00        0.00
   0.00000000   0.00012842   0.00000000            0.00       18.89        0.00
   0.00000000   0.00000000   0.00013088            0.00        0.00       19.25

     Energy error            =      3.8E-05 Ry
     Gradient error          =      8.1E-04 Ry/Bohr

     number of scf cycles    =   6
     number of bfgs steps    =   5

     energy             old  =    -275.9013891592 Ry
     energy             new  =    -275.9014267055 Ry

     CASE: energy            _new < energy            _old

     new trust radius        =       0.0011446232 bohr
     new conv_thr            =       0.0000000010 Ry


ATOMIC_POSITIONS (crystal)
O                0.0000000000        0.2499999962        0.6078041193
O                0.0000000000        0.7500000038        0.3921959097
O                0.5000000000        0.7499999954        0.1078040919
O                0.5000000000        0.2500000046        0.8921958791
O               -0.0000000000        0.7500000096        0.8578087892
O               -0.0000000000        0.2499999904        0.1421912398
O                0.5000000000        0.2500000087        0.3578087573
O                0.5000000000        0.7499999913        0.6421912137
H                0.0000000000        0.4193290022        0.6964715961
H                0.0000000000        0.5806709678        0.3035284039
H                0.5000000000        0.5806710156        0.1964715727
H                0.5000000000        0.4193289544        0.8035284273
H                0.8306687417        0.7500000071        0.9464750936
H                0.1693312283        0.2499999929        0.0535249064
H                0.6693312582        0.2500000099        0.4464750895
H                0.3306687718        0.7499999901        0.5535249105
H                0.6693312582        0.7499999901        0.5535249105
H                0.3306687718        0.2500000099        0.4464750895
H                0.8306687417        0.2499999929        0.0535249064
H                0.1693312283        0.7500000071        0.9464750936
H                0.5000000000        0.9193290220        0.1964715881
H                0.5000000000        0.0806710080        0.8035284119
H                0.0000000000        0.0806710507        0.6964715738
H                0.0000000000        0.9193289793        0.3035284262



     Writing config-only to output data dir ./iceVIII/iceVIII.save/ :
     XML data file
     NEW-OLD atomic charge density approx. for the potential

     total cpu time spent up to now is      112.7 secs

     per-process dynamical memory:    23.3 Mb

     Self-consistent Calculation

     iteration #  1     ecut=    90.00 Ry     beta= 0.70
     Davidson diagonalization with overlap
     ethr =  1.00E-06,  avg # of iterations =  2.0

     Threshold (ethr) on eigenvalues was too large:
     Diagonalizing with lowered threshold

     Davidson diagonalization with overlap
     ethr =  1.50E-09,  avg # of iterations =  3.9

     total cpu time spent up to now is      117.3 secs

     total energy              =    -275.90143763 Ry
     estimated scf accuracy    <       0.00000137 Ry

     iteration #  2     ecut=    90.00 Ry     beta= 0.70
     Davidson diagonalization with overlap
     ethr =  2.14E-09,  avg # of iterations =  2.5

     total cpu time spent up to now is      119.4 secs

     total energy              =    -275.90143793 Ry
     estimated scf accuracy    <       0.00000027 Ry

     iteration #  3     ecut=    90.00 Ry     beta= 0.70
     Davidson diagonalization with overlap
     ethr =  4.22E-10,  avg # of iterations =  2.0

     total cpu time spent up to now is      121.3 secs

     total energy              =    -275.90143797 Ry
     estimated scf accuracy    <          9.9E-09 Ry

     iteration #  4     ecut=    90.00 Ry     beta= 0.70
     Davidson diagonalization with overlap
     ethr =  1.55E-11,  avg # of iterations =  3.0

     total cpu time spent up to now is      123.8 secs

     total energy              =    -275.90143797 Ry
     estimated scf accuracy    <          5.1E-09 Ry

     iteration #  5     ecut=    90.00 Ry     beta= 0.70
     Davidson diagonalization with overlap
     ethr =  7.90E-12,  avg # of iterations =  2.0

     total cpu time spent up to now is      125.8 secs

     End of self-consistent calculation

     Number of k-points >= 100: set verbosity='high' to print the bands.

     highest occupied level (ev):    -0.1347

!    total energy              =    -275.90143798 Ry
     estimated scf accuracy    <          1.2E-10 Ry

     The total energy is the sum of the following terms:
     one-electron contribution =    -123.11857137 Ry
     hartree contribution      =      88.97096353 Ry
     xc contribution           =     -67.79187017 Ry
     ewald contribution        =    -173.96195996 Ry

     convergence has been achieved in   5 iterations

     Forces acting on atoms (cartesian axes, Ry/au):

     atom    1 type  2   force =    -0.00000000    0.00000040    0.00043766
     atom    2 type  2   force =    -0.00000000   -0.00000040   -0.00043766
     atom    3 type  2   force =     0.00000000    0.00000031    0.00043758
     atom    4 type  2   force =     0.00000000   -0.00000031   -0.00043758
     atom    5 type  2   force =     0.00000000   -0.00000002    0.00045647
     atom    6 type  2   force =     0.00000000    0.00000002   -0.00045647
     atom    7 type  2   force =     0.00000000   -0.00000001    0.00045646
     atom    8 type  2   force =     0.00000000    0.00000001   -0.00045646
     atom    9 type  1   force =     0.00000000   -0.00031014    0.00058382
     atom   10 type  1   force =     0.00000000    0.00031014   -0.00058382
     atom   11 type  1   force =     0.00000000    0.00030977    0.00058411
     atom   12 type  1   force =     0.00000000   -0.00030977   -0.00058411
     atom   13 type  1   force =     0.00031686   -0.00000000    0.00058303
     atom   14 type  1   force =    -0.00031686    0.00000000   -0.00058303
     atom   15 type  1   force =    -0.00031686   -0.00000000    0.00058303
     atom   16 type  1   force =     0.00031686    0.00000000   -0.00058303
     atom   17 type  1   force =    -0.00031686    0.00000000   -0.00058303
     atom   18 type  1   force =     0.00031686   -0.00000000    0.00058303
     atom   19 type  1   force =     0.00031686    0.00000000   -0.00058303
     atom   20 type  1   force =    -0.00031686   -0.00000000    0.00058303
     atom   21 type  1   force =     0.00000000   -0.00031006    0.00058389
     atom   22 type  1   force =     0.00000000    0.00031006   -0.00058389
     atom   23 type  1   force =     0.00000000    0.00030976    0.00058410
     atom   24 type  1   force =     0.00000000   -0.00030976   -0.00058410

     Total force =     0.002936     Total SCF correction =     0.000008


     Computing stress (Cartesian axis) and pressure

          total   stress  (Ry/bohr**3)                   (kbar)     P=       18.23
   0.00012280   0.00000000   0.00000000           18.06        0.00        0.00
   0.00000000   0.00012311  -0.00000000            0.00       18.11       -0.00
   0.00000000  -0.00000000   0.00012577            0.00       -0.00       18.50

     Energy error            =      1.1E-05 Ry
     Gradient error          =      5.8E-04 Ry/Bohr

     number of scf cycles    =   7
     number of bfgs steps    =   6

     energy             old  =    -275.9014267055 Ry
     energy             new  =    -275.9014379761 Ry

     CASE: energy            _new < energy            _old

     new trust radius        =       0.0012590855 bohr
     new conv_thr            =       0.0000000010 Ry


ATOMIC_POSITIONS (crystal)
O                0.0000000000        0.2500000178        0.6078821747
O                0.0000000000        0.7499999822        0.3921178543
O                0.5000000000        0.7500000120        0.1078821472
O                0.5000000000        0.2499999880        0.8921178238
O               -0.0000000000        0.7500000069        0.8578880000
O               -0.0000000000        0.2499999931        0.1421120290
O                0.5000000000        0.2500000065        0.3578879677
O                0.5000000000        0.7499999935        0.6421120033
H                0.0000000000        0.4193622449        0.6965667262
H                0.0000000000        0.5806377251        0.3034332738
H                0.5000000000        0.5806377516        0.1965667145
H                0.5000000000        0.4193622184        0.8034332855
H                0.8306354543        0.7500000076        0.9465710094
H                0.1693645157        0.2499999924        0.0534289906
H                0.6693645454        0.2500000102        0.4465710059
H                0.3306354846        0.7499999898        0.5534289941
H                0.6693645454        0.7499999898        0.5534289941
H                0.3306354846        0.2500000102        0.4465710059
H                0.8306354543        0.2499999924        0.0534289906
H                0.1693645157        0.7500000076        0.9465710094
H                0.5000000000        0.9193622687        0.1965667201
H                0.5000000000        0.0806377613        0.8034332799
H                0.0000000000        0.0806377851        0.6965667169
H                0.0000000000        0.9193622449        0.3034332831



     Writing config-only to output data dir ./iceVIII/iceVIII.save/ :
     XML data file
     NEW-OLD atomic charge density approx. for the potential

     total cpu time spent up to now is      127.6 secs

     per-process dynamical memory:    23.3 Mb

     Self-consistent Calculation

     iteration #  1     ecut=    90.00 Ry     beta= 0.70
     Davidson diagonalization with overlap
     ethr =  1.00E-06,  avg # of iterations =  2.0

     Threshold (ethr) on eigenvalues was too large:
     Diagonalizing with lowered threshold

     Davidson diagonalization with overlap
     ethr =  1.28E-09,  avg # of iterations =  4.2

     total cpu time spent up to now is      132.4 secs

     total energy              =    -275.90145010 Ry
     estimated scf accuracy    <       0.00000143 Ry

     iteration #  2     ecut=    90.00 Ry     beta= 0.70
     Davidson diagonalization with overlap
     ethr =  2.23E-09,  avg # of iterations =  2.0

     total cpu time spent up to now is      134.3 secs

     total energy              =    -275.90145036 Ry
     estimated scf accuracy    <       0.00000021 Ry

     iteration #  3     ecut=    90.00 Ry     beta= 0.70
     Davidson diagonalization with overlap
     ethr =  3.22E-10,  avg # of iterations =  2.0

     total cpu time spent up to now is      136.2 secs

     total energy              =    -275.90145040 Ry
     estimated scf accuracy    <       0.00000001 Ry

     iteration #  4     ecut=    90.00 Ry     beta= 0.70
     Davidson diagonalization with overlap
     ethr =  1.83E-11,  avg # of iterations =  2.0

     total cpu time spent up to now is      137.9 secs

     total energy              =    -275.90145040 Ry
     estimated scf accuracy    <          1.5E-09 Ry

     iteration #  5     ecut=    90.00 Ry     beta= 0.70
     Davidson diagonalization with overlap
     ethr =  2.39E-12,  avg # of iterations =  2.6

     total cpu time spent up to now is      140.1 secs

     End of self-consistent calculation

     Number of k-points >= 100: set verbosity='high' to print the bands.

     highest occupied level (ev):    -0.1339

!    total energy              =    -275.90145040 Ry
     estimated scf accuracy    <          1.4E-10 Ry

     The total energy is the sum of the following terms:
     one-electron contribution =    -123.08656420 Ry
     hartree contribution      =      88.95626312 Ry
     xc contribution           =     -67.78947138 Ry
     ewald contribution        =    -173.98167795 Ry

     convergence has been achieved in   5 iterations

     Forces acting on atoms (cartesian axes, Ry/au):

     atom    1 type  2   force =    -0.00000000    0.00000000    0.00070348
     atom    2 type  2   force =    -0.00000000   -0.00000000   -0.00070348
     atom    3 type  2   force =     0.00000000    0.00000000    0.00070342
     atom    4 type  2   force =     0.00000000   -0.00000000   -0.00070342
     atom    5 type  2   force =    -0.00000000   -0.00000000    0.00071720
     atom    6 type  2   force =    -0.00000000    0.00000000   -0.00071720
     atom    7 type  2   force =     0.00000000   -0.00000000    0.00071720
     atom    8 type  2   force =     0.00000000    0.00000000   -0.00071720
     atom    9 type  1   force =     0.00000000   -0.00054367    0.00042244
     atom   10 type  1   force =     0.00000000    0.00054367   -0.00042244
     atom   11 type  1   force =     0.00000000    0.00054363    0.00042249
     atom   12 type  1   force =     0.00000000   -0.00054363   -0.00042249
     atom   13 type  1   force =     0.00054922    0.00000000    0.00042298
     atom   14 type  1   force =    -0.00054922   -0.00000000   -0.00042298
     atom   15 type  1   force =    -0.00054922   -0.00000000    0.00042298
     atom   16 type  1   force =     0.00054922    0.00000000   -0.00042298
     atom   17 type  1   force =    -0.00054922    0.00000000   -0.00042298
     atom   18 type  1   force =     0.00054922   -0.00000000    0.00042298
     atom   19 type  1   force =     0.00054922   -0.00000000   -0.00042298
     atom   20 type  1   force =    -0.00054922    0.00000000    0.00042298
     atom   21 type  1   force =     0.00000000   -0.00054363    0.00042248
     atom   22 type  1   force =     0.00000000    0.00054363   -0.00042248
     atom   23 type  1   force =     0.00000000    0.00054365    0.00042246
     atom   24 type  1   force =     0.00000000   -0.00054365   -0.00042246

     Total force =     0.003417     Total SCF correction =     0.000004


     Computing stress (Cartesian axis) and pressure

          total   stress  (Ry/bohr**3)                   (kbar)     P=       17.75
   0.00011962   0.00000000   0.00000000           17.60        0.00        0.00
   0.00000000   0.00011992  -0.00000000            0.00       17.64       -0.00
   0.00000000  -0.00000000   0.00012244            0.00       -0.00       18.01

     Energy error            =      1.2E-05 Ry
     Gradient error          =      7.2E-04 Ry/Bohr

     number of scf cycles    =   8
     number of bfgs steps    =   7

     energy             old  =    -275.9014379761 Ry
     energy             new  =    -275.9014504021 Ry

     CASE: energy            _new < energy            _old

     new trust radius        =       0.0018886282 bohr
     new conv_thr            =       0.0000000010 Ry


ATOMIC_POSITIONS (crystal)
O                0.0000000000        0.2499999779        0.6080068303
O                0.0000000000        0.7500000221        0.3919931987
O                0.5000000000        0.7499999817        0.1080068071
O                0.5000000000        0.2500000183        0.8919931639
O               -0.0000000000        0.7500000049        0.8580133871
O               -0.0000000000        0.2499999951        0.1419866419
O                0.5000000000        0.2500000048        0.3580133553
O                0.5000000000        0.7499999952        0.6419866157
H                0.0000000000        0.4193863654        0.6967120606
H                0.0000000000        0.5806136046        0.3032879394
H                0.5000000000        0.5806136614        0.1967120348
H                0.5000000000        0.4193863086        0.8032879652
H                0.8306106278        0.7500000091        0.9467179858
H                0.1693893422        0.2499999909        0.0532820142
H                0.6693893710        0.2500000114        0.4467179827
H                0.3306106590        0.7499999886        0.5532820173
H                0.6693893710        0.7499999886        0.5532820173
H                0.3306106590        0.2500000114        0.4467179827
H                0.8306106278        0.2499999909        0.0532820142
H                0.1693893422        0.7500000091        0.9467179858
H                0.5000000000        0.9193863834        0.1967120513
H                0.5000000000        0.0806136466        0.8032879487
H                0.0000000000        0.0806136966        0.6967120373
H                0.0000000000        0.9193863334        0.3032879627



     Writing config-only to output data dir ./iceVIII/iceVIII.save/ :
     XML data file
     NEW-OLD atomic charge density approx. for the potential

     total cpu time spent up to now is      142.0 secs

     per-process dynamical memory:    23.3 Mb

     Self-consistent Calculation

     iteration #  1     ecut=    90.00 Ry     beta= 0.70
     Davidson diagonalization with overlap
     ethr =  1.00E-06,  avg # of iterations =  2.0

     Threshold (ethr) on eigenvalues was too large:
     Diagonalizing with lowered threshold

     Davidson diagonalization with overlap
     ethr =  2.75E-09,  avg # of iterations =  4.1

     total cpu time spent up to now is      147.0 secs

     total energy              =    -275.90146841 Ry
     estimated scf accuracy    <       0.00000304 Ry

     iteration #  2     ecut=    90.00 Ry     beta= 0.70
     Davidson diagonalization with overlap
     ethr =  4.75E-09,  avg # of iterations =  2.0

     total cpu time spent up to now is      148.9 secs

     total energy              =    -275.90146888 Ry
     estimated scf accuracy    <       0.00000029 Ry

     iteration #  3     ecut=    90.00 Ry     beta= 0.70
     Davidson diagonalization with overlap
     ethr =  4.61E-10,  avg # of iterations =  2.0

     total cpu time spent up to now is      150.9 secs

     total energy              =    -275.90146894 Ry
     estimated scf accuracy    <       0.00000003 Ry

     iteration #  4     ecut=    90.00 Ry     beta= 0.70
     Davidson diagonalization with overlap
     ethr =  4.80E-11,  avg # of iterations =  2.0

     total cpu time spent up to now is      152.6 secs

     total energy              =    -275.90146895 Ry
     estimated scf accuracy    <          1.3E-09 Ry

     iteration #  5     ecut=    90.00 Ry     beta= 0.70
     Davidson diagonalization with overlap
     ethr =  2.01E-12,  avg # of iterations =  4.0

     total cpu time spent up to now is      155.1 secs

     End of self-consistent calculation

     Number of k-points >= 100: set verbosity='high' to print the bands.

     highest occupied level (ev):    -0.1328

!    total energy              =    -275.90146895 Ry
     estimated scf accuracy    <          3.4E-10 Ry

     The total energy is the sum of the following terms:
     one-electron contribution =    -123.05105452 Ry
     hartree contribution      =      88.93965663 Ry
     xc contribution           =     -67.78725445 Ry
     ewald contribution        =    -174.00281661 Ry

     convergence has been achieved in   5 iterations

     Forces acting on atoms (cartesian axes, Ry/au):

     atom    1 type  2   force =    -0.00000000    0.00000065    0.00092948
     atom    2 type  2   force =    -0.00000000   -0.00000065   -0.00092948
     atom    3 type  2   force =     0.00000000    0.00000049    0.00092935
     atom    4 type  2   force =     0.00000000   -0.00000049   -0.00092935
     atom    5 type  2   force =     0.00000000   -0.00000002    0.00095501
     atom    6 type  2   force =     0.00000000    0.00000002   -0.00095501
     atom    7 type  2   force =     0.00000000   -0.00000001    0.00095500
     atom    8 type  2   force =     0.00000000    0.00000001   -0.00095500
     atom    9 type  1   force =     0.00000000   -0.00073815    0.00026446
     atom   10 type  1   force =     0.00000000    0.00073815   -0.00026446
     atom   11 type  1   force =     0.00000000    0.00073755    0.00026491
     atom   12 type  1   force =     0.00000000   -0.00073755   -0.00026491
     atom   13 type  1   force =     0.00075135   -0.00000001    0.00025854
     atom   14 type  1   force =    -0.00075135    0.00000001   -0.00025854
     atom   15 type  1   force =    -0.00075134   -0.00000001    0.00025854
     atom   16 type  1   force =     0.00075134    0.00000001   -0.00025854
     atom   17 type  1   force =    -0.00075134    0.00000001   -0.00025854
     atom   18 type  1   force =     0.00075134   -0.00000001    0.00025854
     atom   19 type  1   force =     0.00075135    0.00000001   -0.00025854
     atom   20 type  1   force =    -0.00075135   -0.00000001    0.00025854
     atom   21 type  1   force =     0.00000000   -0.00073801    0.00026458
     atom   22 type  1   force =     0.00000000    0.00073801   -0.00026458
     atom   23 type  1   force =     0.00000000    0.00073755    0.00026490
     atom   24 type  1   force =     0.00000000   -0.00073755   -0.00026490

     Total force =     0.004132     Total SCF correction =     0.000008


     Computing stress (Cartesian axis) and pressure

          total   stress  (Ry/bohr**3)                   (kbar)     P=       17.32
   0.00011677   0.00000000   0.00000000           17.18        0.00        0.00
   0.00000000   0.00011716  -0.00000000            0.00       17.24       -0.00
   0.00000000  -0.00000000   0.00011924            0.00       -0.00       17.54

     Energy error            =      1.9E-05 Ry
     Gradient error          =      9.6E-04 Ry/Bohr

     number of scf cycles    =   9
     number of bfgs steps    =   8

     energy             old  =    -275.9014504021 Ry
     energy             new  =    -275.9014689470 Ry

     CASE: energy            _new < energy            _old

     new trust radius        =       0.0028329423 bohr
     new conv_thr            =       0.0000000010 Ry


ATOMIC_POSITIONS (crystal)
O                0.0000000000        0.2500000170        0.6082003530
O                0.0000000000        0.7499999830        0.3917996760
O                0.5000000000        0.7500000119        0.1082003310
O                0.5000000000        0.2499999881        0.8917996400
O               -0.0000000000        0.7499999997        0.8582090000
O               -0.0000000000        0.2500000003        0.1417910290
O                0.5000000000        0.2500000008        0.3582089682
O                0.5000000000        0.7499999992        0.6417910028
H                0.0000000000        0.4194025501        0.6969317289
H                0.0000000000        0.5805974199        0.3030682711
H                0.5000000000        0.5805974386        0.1969317245
H                0.5000000000        0.4194025314        0.8030682755
H                0.8305942467        0.7500000098        0.9469396662
H                0.1694057233        0.2499999902        0.0530603338
H                0.6694057515        0.2500000117        0.4469396641
H                0.3305942785        0.7499999883        0.5530603359
H                0.6694057515        0.7499999883        0.5530603359
H                0.3305942785        0.2500000117        0.4469396641
H                0.8305942467        0.2499999902        0.0530603338
H                0.1694057233        0.7500000098        0.9469396662
H                0.5000000000        0.9194025739        0.1969317226
H                0.5000000000        0.0805974561        0.8030682774
H                0.0000000000        0.0805974691        0.6969317300
H                0.0000000000        0.9194025609        0.3030682700



     Writing config-only to output data dir ./iceVIII/iceVIII.save/ :
     XML data file
     NEW-OLD atomic charge density approx. for the potential

     total cpu time spent up to now is      156.9 secs

     per-process dynamical memory:    23.3 Mb

     Self-consistent Calculation

     iteration #  1     ecut=    90.00 Ry     beta= 0.70
     Davidson diagonalization with overlap
     ethr =  1.00E-06,  avg # of iterations =  2.0

     Threshold (ethr) on eigenvalues was too large:
     Diagonalizing with lowered threshold

     Davidson diagonalization with overlap
     ethr =  6.66E-09,  avg # of iterations =  4.1

     total cpu time spent up to now is      161.7 secs

     total energy              =    -275.90149459 Ry
     estimated scf accuracy    <       0.00000708 Ry

     iteration #  2     ecut=    90.00 Ry     beta= 0.70
     Davidson diagonalization with overlap
     ethr =  1.11E-08,  avg # of iterations =  2.0

     total cpu time spent up to now is      163.6 secs

     total energy              =    -275.90149565 Ry
     estimated scf accuracy    <       0.00000056 Ry

     iteration #  3     ecut=    90.00 Ry     beta= 0.70
     Davidson diagonalization with overlap
     ethr =  8.69E-10,  avg # of iterations =  2.0

     total cpu time spent up to now is      165.5 secs

     total energy              =    -275.90149576 Ry
     estimated scf accuracy    <       0.00000007 Ry

     iteration #  4     ecut=    90.00 Ry     beta= 0.70
     Davidson diagonalization with overlap
     ethr =  1.06E-10,  avg # of iterations =  2.0

     total cpu time spent up to now is      167.3 secs

     total energy              =    -275.90149577 Ry
     estimated scf accuracy    <          2.4E-09 Ry

     iteration #  5     ecut=    90.00 Ry     beta= 0.70
     Davidson diagonalization with overlap
     ethr =  3.69E-12,  avg # of iterations =  3.8

     total cpu time spent up to now is      169.8 secs

     End of self-consistent calculation

     Number of k-points >= 100: set verbosity='high' to print the bands.

     highest occupied level (ev):    -0.1314

!    total energy              =    -275.90149577 Ry
     estimated scf accuracy    <          4.2E-10 Ry

     The total energy is the sum of the following terms:
     one-electron contribution =    -123.00891866 Ry
     hartree contribution      =      88.91954005 Ry
     xc contribution           =     -67.78512196 Ry
     ewald contribution        =    -174.02699520 Ry

     convergence has been achieved in   5 iterations

     Forces acting on atoms (cartesian axes, Ry/au):

     atom    1 type  2   force =     0.00000000   -0.00000009    0.00112554
     atom    2 type  2   force =     0.00000000    0.00000009   -0.00112554
     atom    3 type  2   force =    -0.00000000   -0.00000007    0.00112540
     atom    4 type  2   force =    -0.00000000    0.00000007   -0.00112540
     atom    5 type  2   force =     0.00000000    0.00000001    0.00114882
     atom    6 type  2   force =     0.00000000   -0.00000001   -0.00114882
     atom    7 type  2   force =     0.00000000    0.00000001    0.00114882
     atom    8 type  2   force =     0.00000000   -0.00000001   -0.00114882
     atom    9 type  1   force =     0.00000000   -0.00090533    0.00009767
     atom   10 type  1   force =     0.00000000    0.00090533   -0.00009767
     atom   11 type  1   force =     0.00000000    0.00090533    0.00009769
     atom   12 type  1   force =     0.00000000   -0.00090533   -0.00009769
     atom   13 type  1   force =     0.00091948   -0.00000000    0.00009096
     atom   14 type  1   force =    -0.00091948    0.00000000   -0.00009096
     atom   15 type  1   force =    -0.00091947   -0.00000000    0.00009097
     atom   16 type  1   force =     0.00091947    0.00000000   -0.00009097
     atom   17 type  1   force =    -0.00091947    0.00000000   -0.00009097
     atom   18 type  1   force =     0.00091947   -0.00000000    0.00009097
     atom   19 type  1   force =     0.00091948    0.00000000   -0.00009096
     atom   20 type  1   force =    -0.00091948   -0.00000000    0.00009096
     atom   21 type  1   force =     0.00000000   -0.00090527    0.00009774
     atom   22 type  1   force =     0.00000000    0.00090527   -0.00009774
     atom   23 type  1   force =     0.00000000    0.00090541    0.00009761
     atom   24 type  1   force =     0.00000000   -0.00090541   -0.00009761

     Total force =     0.004879     Total SCF correction =     0.000006


     Computing stress (Cartesian axis) and pressure

          total   stress  (Ry/bohr**3)                   (kbar)     P=       16.89
   0.00011411   0.00000000   0.00000000           16.79        0.00        0.00
   0.00000000   0.00011449   0.00000000            0.00       16.84        0.00
   0.00000000   0.00000000   0.00011593            0.00        0.00       17.05

     Energy error            =      2.7E-05 Ry
     Gradient error          =      1.1E-03 Ry/Bohr

     number of scf cycles    =  10
     number of bfgs steps    =   9

     energy             old  =    -275.9014689470 Ry
     energy             new  =    -275.9014957735 Ry

     CASE: energy            _new < energy            _old

     new trust radius        =       0.0042494135 bohr
     new conv_thr            =       0.0000000010 Ry


ATOMIC_POSITIONS (crystal)
O                0.0000000000        0.2499999384        0.6084973086
O                0.0000000000        0.7500000616        0.3915027204
O                0.5000000000        0.7499999523        0.1084972900
O                0.5000000000        0.2500000477        0.8915026810
O               -0.0000000000        0.7499999964        0.8585085103
O               -0.0000000000        0.2500000036        0.1414915187
O                0.5000000000        0.2499999979        0.3585084793
O                0.5000000000        0.7500000021        0.6414914917
H                0.0000000000        0.4194059172        0.6972614753
H                0.0000000000        0.5805940528        0.3027385247
H                0.5000000000        0.5805941272        0.1972614458
H                0.5000000000        0.4194058428        0.8027385542
H                0.8305903913        0.7500000122        0.9472726128
H                0.1694095787        0.2499999878        0.0527273872
H                0.6694096059        0.2500000137        0.4472726117
H                0.3305904241        0.7499999863        0.5527273883
H                0.6694096059        0.7499999863        0.5527273883
H                0.3305904241        0.2500000137        0.4472726117
H                0.8305903913        0.2499999878        0.0527273872
H                0.1694095787        0.7500000122        0.9472726128
H                0.5000000000        0.9194059329        0.1972614653
H                0.5000000000        0.0805940971        0.8027385347
H                0.0000000000        0.0805941640        0.6972614491
H                0.0000000000        0.9194058660        0.3027385509



     Writing config-only to output data dir ./iceVIII/iceVIII.save/ :
     XML data file
     NEW-OLD atomic charge density approx. for the potential

     total cpu time spent up to now is      171.6 secs

     per-process dynamical memory:    23.3 Mb

     Self-consistent Calculation

     iteration #  1     ecut=    90.00 Ry     beta= 0.70
     Davidson diagonalization with overlap
     ethr =  1.00E-06,  avg # of iterations =  3.0

     Threshold (ethr) on eigenvalues was too large:
     Diagonalizing with lowered threshold

     Davidson diagonalization with overlap
     ethr =  1.73E-08,  avg # of iterations =  3.8

     total cpu time spent up to now is      176.4 secs

     total energy              =    -275.90153015 Ry
     estimated scf accuracy    <       0.00001568 Ry

     iteration #  2     ecut=    90.00 Ry     beta= 0.70
[...]
     atom   12 type  1   force =     0.00000000   -0.00047943    0.00029068
     atom   13 type  1   force =     0.00048443    0.00000005   -0.00029773
     atom   14 type  1   force =    -0.00048443   -0.00000005    0.00029773
     atom   15 type  1   force =    -0.00048442    0.00000007   -0.00029773
     atom   16 type  1   force =     0.00048442   -0.00000007    0.00029773
     atom   17 type  1   force =    -0.00048442   -0.00000007    0.00029773
     atom   18 type  1   force =     0.00048442    0.00000007   -0.00029773
     atom   19 type  1   force =     0.00048443   -0.00000005    0.00029773
     atom   20 type  1   force =    -0.00048443    0.00000005   -0.00029773
     atom   21 type  1   force =     0.00000000   -0.00047538   -0.00028771
     atom   22 type  1   force =     0.00000000    0.00047538    0.00028771
     atom   23 type  1   force =     0.00000000    0.00048009   -0.00029119
     atom   24 type  1   force =     0.00000000   -0.00048009    0.00029119

     Total force =     0.002779     Total SCF correction =     0.000019


     Computing stress (Cartesian axis) and pressure

          total   stress  (Ry/bohr**3)                   (kbar)     P=       16.73
   0.00011513   0.00000000   0.00000000           16.94        0.00        0.00
   0.00000000   0.00011531   0.00000002            0.00       16.96        0.00
   0.00000000   0.00000002   0.00011065            0.00        0.00       16.28

     Energy error            =      1.2E-05 Ry
     Gradient error          =      5.8E-04 Ry/Bohr

     number of scf cycles    =  14
     number of bfgs steps    =  13

     energy             old  =    -275.9016216475 Ry
     energy             new  =    -275.9016335526 Ry

     CASE: energy            _new < energy            _old

     new trust radius        =       0.0006079502 bohr
     new conv_thr            =       0.0000000010 Ry


ATOMIC_POSITIONS (crystal)
O                0.0000000000        0.2499995695        0.6100981716
O                0.0000000000        0.7500004305        0.3899018574
O                0.5000000000        0.7499996741        0.1100981482
O                0.5000000000        0.2500003259        0.8899018228
O               -0.0000000000        0.7499999965        0.8601223086
O               -0.0000000000        0.2500000035        0.1398777204
O                0.5000000000        0.2499999966        0.3601222816
O                0.5000000000        0.7500000034        0.6398776894
H                0.0000000000        0.4192020156        0.6989691137
H                0.0000000000        0.5807979544        0.3010308863
H                0.5000000000        0.5807982852        0.1989689666
H                0.5000000000        0.4192016848        0.8010310334
H                0.8307966870        0.7500000147        0.9489937331
H                0.1692032830        0.2499999853        0.0510062669
H                0.6692033112        0.2500000146        0.4489937364
H                0.3307967188        0.7499999854        0.5510062636
H                0.6692033112        0.7499999854        0.5510062636
H                0.3307967188        0.2500000146        0.4489937364
H                0.8307966870        0.2499999853        0.0510062669
H                0.1692032830        0.7500000147        0.9489937331
H                0.5000000000        0.9192020015        0.1989690953
H                0.5000000000        0.0807980285        0.8010309047
H               -0.0000000000        0.0807983595        0.6989689480
H               -0.0000000000        0.9192016705        0.3010310520



     Writing config-only to output data dir ./iceVIII/iceVIII.save/ :
     XML data file
     NEW-OLD atomic charge density approx. for the potential

     total cpu time spent up to now is      233.8 secs

     per-process dynamical memory:    23.3 Mb

     Self-consistent Calculation

     iteration #  1     ecut=    90.00 Ry     beta= 0.70
     Davidson diagonalization with overlap
     ethr =  1.00E-06,  avg # of iterations =  2.0

     Threshold (ethr) on eigenvalues was too large:
     Diagonalizing with lowered threshold

     Davidson diagonalization with overlap
     ethr =  8.43E-10,  avg # of iterations =  3.0

     total cpu time spent up to now is      238.0 secs

     total energy              =    -275.90163567 Ry
     estimated scf accuracy    <       0.00000071 Ry

     iteration #  2     ecut=    90.00 Ry     beta= 0.70
     Davidson diagonalization with overlap
     ethr =  1.11E-09,  avg # of iterations =  2.0

     total cpu time spent up to now is      240.0 secs

     total energy              =    -275.90163582 Ry
     estimated scf accuracy    <       0.00000011 Ry

     iteration #  3     ecut=    90.00 Ry     beta= 0.70
     Davidson diagonalization with overlap
     ethr =  1.79E-10,  avg # of iterations =  2.0

     total cpu time spent up to now is      242.0 secs

     total energy              =    -275.90163584 Ry
     estimated scf accuracy    <          5.1E-09 Ry

     iteration #  4     ecut=    90.00 Ry     beta= 0.70
     Davidson diagonalization with overlap
     ethr =  7.90E-12,  avg # of iterations =  2.9

     total cpu time spent up to now is      244.2 secs

     total energy              =    -275.90163584 Ry
     estimated scf accuracy    <          1.4E-09 Ry

     iteration #  5     ecut=    90.00 Ry     beta= 0.70
     Davidson diagonalization with overlap
     ethr =  2.16E-12,  avg # of iterations =  2.7

     total cpu time spent up to now is      246.4 secs

     End of self-consistent calculation

     Number of k-points >= 100: set verbosity='high' to print the bands.

     highest occupied level (ev):    -0.1215

!    total energy              =    -275.90163584 Ry
     estimated scf accuracy    <          1.2E-10 Ry

     The total energy is the sum of the following terms:
     one-electron contribution =    -122.83360734 Ry
     hartree contribution      =      88.82831214 Ry
     xc contribution           =     -67.78673840 Ry
     ewald contribution        =    -174.10960224 Ry

     convergence has been achieved in   5 iterations

     Forces acting on atoms (cartesian axes, Ry/au):

     atom    1 type  2   force =     0.00000000    0.00000711    0.00027030
     atom    2 type  2   force =     0.00000000   -0.00000711   -0.00027030
     atom    3 type  2   force =     0.00000000    0.00000543    0.00027024
     atom    4 type  2   force =     0.00000000   -0.00000543   -0.00027024
     atom    5 type  2   force =    -0.00000000   -0.00000016    0.00027348
     atom    6 type  2   force =    -0.00000000    0.00000016   -0.00027348
     atom    7 type  2   force =     0.00000000   -0.00000011    0.00027348
     atom    8 type  2   force =     0.00000000    0.00000011   -0.00027348
     atom    9 type  1   force =     0.00000000   -0.00023209   -0.00015809
     atom   10 type  1   force =     0.00000000    0.00023209    0.00015809
     atom   11 type  1   force =     0.00000000    0.00022630   -0.00015389
     atom   12 type  1   force =     0.00000000   -0.00022630    0.00015389
     atom   13 type  1   force =     0.00023778   -0.00000010   -0.00016753
     atom   14 type  1   force =    -0.00023778    0.00000010    0.00016753
     atom   15 type  1   force =    -0.00023777   -0.00000012   -0.00016753
     atom   16 type  1   force =     0.00023777    0.00000012    0.00016753
     atom   17 type  1   force =    -0.00023777    0.00000012    0.00016753
     atom   18 type  1   force =     0.00023777   -0.00000012   -0.00016753
     atom   19 type  1   force =     0.00023778    0.00000010    0.00016753
     atom   20 type  1   force =    -0.00023778   -0.00000010   -0.00016753
     atom   21 type  1   force =     0.00000000   -0.00023128   -0.00015750
     atom   22 type  1   force =     0.00000000    0.00023128    0.00015750
     atom   23 type  1   force =     0.00000000    0.00022554   -0.00015335
     atom   24 type  1   force =     0.00000000   -0.00022554    0.00015335

     Total force =     0.001372     Total SCF correction =     0.000004


     Computing stress (Cartesian axis) and pressure

          total   stress  (Ry/bohr**3)                   (kbar)     P=       17.16
   0.00011815   0.00000000   0.00000000           17.38        0.00        0.00
   0.00000000   0.00011836  -0.00000003            0.00       17.41       -0.00
   0.00000000  -0.00000003   0.00011352            0.00       -0.00       16.70

     Energy error            =      2.3E-06 Ry
     Gradient error          =      2.7E-04 Ry/Bohr

     number of scf cycles    =  15
     number of bfgs steps    =  14

     energy             old  =    -275.9016335526 Ry
     energy             new  =    -275.9016358404 Ry

     CASE: energy            _new < energy            _old

     new trust radius        =       0.0008552581 bohr
     new conv_thr            =       0.0000000010 Ry


ATOMIC_POSITIONS (crystal)
O                0.0000000000        0.2500008150        0.6100514116
O                0.0000000000        0.7499991850        0.3899486174
O                0.5000000000        0.7500006266        0.1100513840
O                0.5000000000        0.2499993734        0.8899485870
O               -0.0000000000        0.7499999716        0.8600746155
O               -0.0000000000        0.2500000284        0.1399254135
O                0.5000000000        0.2499999794        0.3600745885
O                0.5000000000        0.7500000206        0.6399253825
H                0.0000000000        0.4191686337        0.6989080487
H                0.0000000000        0.5808313363        0.3010919513
H                0.5000000000        0.5808306576        0.1989084086
H                0.5000000000        0.4191693124        0.8010915914
H                0.8308307870        0.7499999959        0.9489310303
H                0.1691691830        0.2500000041        0.0510689697
H                0.6691692127        0.2499999935        0.4489310330
H                0.3308308173        0.7500000065        0.5510689670
H                0.6691692127        0.7500000065        0.5510689670
H                0.3308308173        0.2499999935        0.4489310330
H                0.8308307870        0.2500000041        0.0510689697
H                0.1691691830        0.7499999959        0.9489310303
H                0.5000000000        0.9191687574        0.1989081007
H                0.5000000000        0.0808312726        0.8010918993
H               -0.0000000000        0.0808305957        0.6989084570
H               -0.0000000000        0.9191694343        0.3010915430



     Writing config-only to output data dir ./iceVIII/iceVIII.save/ :
     XML data file
     NEW-OLD atomic charge density approx. for the potential

     total cpu time spent up to now is      248.2 secs

     per-process dynamical memory:    23.3 Mb

     Self-consistent Calculation

     iteration #  1     ecut=    90.00 Ry     beta= 0.70
     Davidson diagonalization with overlap
     ethr =  1.00E-06,  avg # of iterations =  2.0

     Threshold (ethr) on eigenvalues was too large:
     Diagonalizing with lowered threshold

     Davidson diagonalization with overlap
     ethr =  7.07E-10,  avg # of iterations =  4.0

     total cpu time spent up to now is      252.8 secs

     total energy              =    -275.90163667 Ry
     estimated scf accuracy    <       0.00000067 Ry

     iteration #  2     ecut=    90.00 Ry     beta= 0.70
     Davidson diagonalization with overlap
     ethr =  1.05E-09,  avg # of iterations =  2.0

     total cpu time spent up to now is      254.8 secs

     total energy              =    -275.90163681 Ry
     estimated scf accuracy    <       0.00000012 Ry

     iteration #  3     ecut=    90.00 Ry     beta= 0.70
     Davidson diagonalization with overlap
     ethr =  1.94E-10,  avg # of iterations =  2.0

     total cpu time spent up to now is      256.8 secs

     total energy              =    -275.90163683 Ry
     estimated scf accuracy    <          5.1E-09 Ry

     iteration #  4     ecut=    90.00 Ry     beta= 0.70
     Davidson diagonalization with overlap
     ethr =  7.93E-12,  avg # of iterations =  3.1

     total cpu time spent up to now is      259.0 secs

     total energy              =    -275.90163683 Ry
     estimated scf accuracy    <          1.6E-09 Ry

     iteration #  5     ecut=    90.00 Ry     beta= 0.70
     Davidson diagonalization with overlap
     ethr =  2.49E-12,  avg # of iterations =  2.8

     total cpu time spent up to now is      261.2 secs

     End of self-consistent calculation

     Number of k-points >= 100: set verbosity='high' to print the bands.

     highest occupied level (ev):    -0.1222

!    total energy              =    -275.90163683 Ry
     estimated scf accuracy    <          4.5E-11 Ry

     The total energy is the sum of the following terms:
     one-electron contribution =    -122.85980237 Ry
     hartree contribution      =      88.84017579 Ry
     xc contribution           =     -67.78901819 Ry
     ewald contribution        =    -174.09299206 Ry

     convergence has been achieved in   5 iterations

     Forces acting on atoms (cartesian axes, Ry/au):

     atom    1 type  2   force =     0.00000000   -0.00001425    0.00001356
     atom    2 type  2   force =     0.00000000    0.00001425   -0.00001356
     atom    3 type  2   force =     0.00000000   -0.00001091    0.00001357
     atom    4 type  2   force =     0.00000000    0.00001091   -0.00001357
     atom    5 type  2   force =     0.00000000    0.00000039    0.00000145
     atom    6 type  2   force =     0.00000000   -0.00000039   -0.00000145
     atom    7 type  2   force =     0.00000000    0.00000026    0.00000145
     atom    8 type  2   force =     0.00000000   -0.00000026   -0.00000145
     atom    9 type  1   force =     0.00000000   -0.00000163   -0.00000668
     atom   10 type  1   force =     0.00000000    0.00000163    0.00000668
     atom   11 type  1   force =     0.00000000    0.00001321   -0.00001513
     atom   12 type  1   force =     0.00000000   -0.00001321    0.00001513
     atom   13 type  1   force =     0.00000556    0.00000017   -0.00001457
     atom   14 type  1   force =    -0.00000556   -0.00000017    0.00001457
     atom   15 type  1   force =    -0.00000556    0.00000019   -0.00001457
     atom   16 type  1   force =     0.00000556   -0.00000019    0.00001457
     atom   17 type  1   force =    -0.00000556   -0.00000019    0.00001457
     atom   18 type  1   force =     0.00000556    0.00000019   -0.00001457
     atom   19 type  1   force =     0.00000556   -0.00000017    0.00001457
     atom   20 type  1   force =    -0.00000556    0.00000017   -0.00001457
     atom   21 type  1   force =     0.00000000   -0.00000319   -0.00000782
     atom   22 type  1   force =     0.00000000    0.00000319    0.00000782
     atom   23 type  1   force =     0.00000000    0.00001475   -0.00001626
     atom   24 type  1   force =     0.00000000   -0.00001475    0.00001626

     Total force =     0.000073     Total SCF correction =     0.000004


     Computing stress (Cartesian axis) and pressure

          total   stress  (Ry/bohr**3)                   (kbar)     P=       17.62
   0.00012131   0.00000000   0.00000000           17.84        0.00        0.00
   0.00000000   0.00012139   0.00000006            0.00       17.86        0.01
   0.00000000   0.00000006   0.00011669            0.00        0.01       17.17

     Energy error            =      9.9E-07 Ry
     Gradient error          =      1.6E-05 Ry/Bohr

     bfgs converged in  16 scf cycles and  15 bfgs steps
     (criteria: energy <  1.0E-04 Ry, force <  1.0E-04 Ry/Bohr)

     End of BFGS Geometry Optimization

     Final energy             =    -275.9016368343 Ry

     File ./iceVIII/iceVIII.bfgs deleted, as requested
Begin final coordinates

ATOMIC_POSITIONS (crystal)
O                0.0000000000        0.2500008150        0.6100514116
O                0.0000000000        0.7499991850        0.3899486174
O                0.5000000000        0.7500006266        0.1100513840
O                0.5000000000        0.2499993734        0.8899485870
O               -0.0000000000        0.7499999716        0.8600746155
O               -0.0000000000        0.2500000284        0.1399254135
O                0.5000000000        0.2499999794        0.3600745885
O                0.5000000000        0.7500000206        0.6399253825
H                0.0000000000        0.4191686337        0.6989080487
H                0.0000000000        0.5808313363        0.3010919513
H                0.5000000000        0.5808306576        0.1989084086
H                0.5000000000        0.4191693124        0.8010915914
H                0.8308307870        0.7499999959        0.9489310303
H                0.1691691830        0.2500000041        0.0510689697
H                0.6691692127        0.2499999935        0.4489310330
H                0.3308308173        0.7500000065        0.5510689670
H                0.6691692127        0.7500000065        0.5510689670
H                0.3308308173        0.2499999935        0.4489310330
H                0.8308307870        0.2500000041        0.0510689697
H                0.1691691830        0.7499999959        0.9489310303
H                0.5000000000        0.9191687574        0.1989081007
H                0.5000000000        0.0808312726        0.8010918993
H               -0.0000000000        0.0808305957        0.6989084570
H               -0.0000000000        0.9191694343        0.3010915430
End final coordinates



     Writing all to output data dir ./iceVIII/iceVIII.save/ :
     XML data file, charge density, pseudopotentials, collected wavefunctions

     init_run     :      1.20s CPU      1.26s WALL (       1 calls)
     electrons    :    227.84s CPU    232.70s WALL (      16 calls)
     update_pot   :      0.13s CPU      0.15s WALL (      15 calls)
     forces       :      2.09s CPU      2.11s WALL (      16 calls)
     stress       :     25.59s CPU     25.62s WALL (      16 calls)

     Called by init_run:
     wfcinit      :      0.86s CPU      0.88s WALL (       1 calls)
     potinit      :      0.02s CPU      0.03s WALL (       1 calls)
     hinit0       :      0.27s CPU      0.27s WALL (       1 calls)

     Called by electrons:
     c_bands      :    202.81s CPU    207.08s WALL (     104 calls)
     sum_band     :     23.99s CPU     24.28s WALL (     104 calls)
     v_of_rho     :      0.72s CPU      0.73s WALL (     109 calls)
     newd         :      0.14s CPU      0.15s WALL (     109 calls)
     mix_rho      :      0.09s CPU      0.09s WALL (     104 calls)

     Called by c_bands:
     init_us_2    :      2.67s CPU      2.77s WALL (    8676 calls)
     cegterg      :    194.09s CPU    196.57s WALL (    3744 calls)

     Called by *egterg:
     cdiaghg      :     22.88s CPU     23.01s WALL (   13232 calls)
     h_psi        :    143.26s CPU    145.44s WALL (   14204 calls)
     s_psi        :      5.61s CPU      5.65s WALL (   14204 calls)
     g_psi        :      0.48s CPU      0.48s WALL (   10424 calls)

     Called by h_psi:
     h_psi:calbec :      7.43s CPU      7.51s WALL (   14204 calls)
     vloc_psi     :    129.28s CPU    131.30s WALL (   14204 calls)
     add_vuspsi   :      5.92s CPU      5.98s WALL (   14204 calls)

     General routines
     calbec       :     11.39s CPU     11.52s WALL (   20828 calls)
     fft          :      0.66s CPU      0.68s WALL (    1353 calls)
     ffts         :      0.04s CPU      0.04s WALL (     104 calls)
     fftw         :    138.29s CPU    140.38s WALL (  874804 calls)

     Parallel routines

     PWSCF        :   4m18.34s CPU   4m24.69s WALL


   This run was terminated on:  18:35:22  31Mar2026            

=------------------------------------------------------------------------------=
   JOB DONE.
=------------------------------------------------------------------------------=
