
     Program PWSCF v.7.3.1 starts on 13Feb2026 at 17:50:25 

     This program is part of the open-source Quantum ESPRESSO suite
     for quantum simulation of materials; please cite
         "P. Giannozzi et al., J. Phys.:Condens. Matter 21 395502 (2009);
         "P. Giannozzi et al., J. Phys.:Condens. Matter 29 465901 (2017);
         "P. Giannozzi et al., J. Chem. Phys. 152 154105 (2020);
          URL http://www.quantum-espresso.org", 
     in publications or presentations arising from this work. More details at
     http://www.quantum-espresso.org/quote

     Parallel version (MPI), running on   128 processors

     MPI processes distributed on     1 nodes
     242164 MiB available memory on the printing compute node when the environment starts

     Waiting for input...
     Reading input from standard input
     Message from routine read_cards :
     DEPRECATED: no units specified in ATOMIC_POSITIONS card
     Message from routine read_cards :
     ATOMIC_POSITIONS: units set to alat

     Current dimensions of program PWSCF are:
     Max number of different atomic species (ntypx) = 10
     Max number of k-points (npk) =  40000
     Max angular momentum in pseudopotentials (lmaxx) =  4
     Found identity + ( -0.5000 -0.5000  0.0000) symmetry
     This is a supercell, fractional translations are disabled

     K-points division:     npool     =       4
     R & G space division:  proc/nbgrp/npool/nimage =      32
     Subspace diagonalization in iterative solution of the eigenvalue problem:
     a serial algorithm will be used


     Parallelization info
     --------------------
     sticks:   dense  smooth     PW     G-vecs:    dense   smooth      PW
     Min         169     169     46                 9423     9423    1332
     Max         170     170     47                 9430     9430    1335
     Sum        5433    5433   1481               301651   301651   42691

     Using Slab Decomposition



     bravais-lattice index     =            6
     lattice parameter (alat)  =      10.3351  a.u.
     unit-cell volume          =    1103.9232 (a.u.)^3
     number of atoms/cell      =            8
     number of atomic types    =            1
     number of electrons       =        32.00
     number of Kohn-Sham states=           16
     kinetic-energy cutoff     =     160.0000  Ry
     charge density cutoff     =     640.0000  Ry
     scf convergence threshold =      1.0E-07
     mixing beta               =       0.7000
     number of iterations used =            8  plain     mixing
     Exchange-correlation=  SLA  PW   PBE  PBE
                           (   1   4   3   4   0   0   0)

     celldm(1)=  10.335059  celldm(2)=   0.000000  celldm(3)=   1.000000
     celldm(4)=   0.000000  celldm(5)=   0.000000  celldm(6)=   0.000000

     crystal axes: (cart. coord. in units of alat)
               a(1) = (   1.000000   0.000000   0.000000 )  
               a(2) = (   0.000000   1.000000   0.000000 )  
               a(3) = (   0.000000   0.000000   1.000000 )  

     reciprocal axes: (cart. coord. in units 2 pi/alat)
               b(1) = (  1.000000  0.000000  0.000000 )  
               b(2) = (  0.000000  1.000000  0.000000 )  
               b(3) = (  0.000000  0.000000  1.000000 )  


     PseudoPot. # 1 for Si read from file:
     ./Si.pbe-n-van.UPF
     MD5 check sum: 8a97496598b7338af554a5de8957bfee
     Pseudo is Ultrasoft + core correction, Zval =  4.0
     Generated by new atomic code, or converted to UPF format
     Using radial grid of  899 points,  6 beta functions with: 
                l(1) =   0
                l(2) =   0
                l(3) =   1
                l(4) =   1
                l(5) =   2
                l(6) =   2
     Q(r) pseudized with  8 coefficients,  rinner =    0.900   0.900   0.900
                                                       0.900   0.900

     atomic species   valence    mass     pseudopotential
     Si                4.00    28.08600     Si( 1.00)

     24 Sym. Ops. (no inversion) found



   Cartesian axes

     site n.     atom                  positions (alat units)
         1        Si     tau(   1) = (   0.0000000   0.0000000   0.0000000  )
         2        Si     tau(   2) = (   0.2500000   0.2500000   0.2500000  )
         3        Si     tau(   3) = (   0.7500000   0.2500000   0.7500000  )
         4        Si     tau(   4) = (   0.7500000   0.7500000   0.2500000  )
         5        Si     tau(   5) = (   0.2500000   0.7500000   0.7500000  )
         6        Si     tau(   6) = (   0.5000000   0.5000000   0.0000000  )
         7        Si     tau(   7) = (   0.5000000   0.0000000   0.5000000  )
         8        Si     tau(   8) = (   0.0000000   0.5000000   0.5000000  )

     number of k points=    35
                       cart. coord. in units 2pi/alat
        k(    1) = (   0.0000000   0.0000000   0.0000000), wk =   0.0039062
        k(    2) = (   0.0000000   0.0000000   0.1250000), wk =   0.0234375
        k(    3) = (   0.0000000   0.0000000   0.2500000), wk =   0.0234375
        k(    4) = (   0.0000000   0.0000000   0.3750000), wk =   0.0234375
        k(    5) = (   0.0000000   0.0000000  -0.5000000), wk =   0.0117188
        k(    6) = (   0.0000000   0.1250000   0.1250000), wk =   0.0468750
        k(    7) = (   0.0000000   0.1250000   0.2500000), wk =   0.0937500
        k(    8) = (   0.0000000   0.1250000   0.3750000), wk =   0.0937500
        k(    9) = (   0.0000000   0.1250000  -0.5000000), wk =   0.0468750
        k(   10) = (   0.0000000   0.2500000   0.2500000), wk =   0.0468750
        k(   11) = (   0.0000000   0.2500000   0.3750000), wk =   0.0937500
        k(   12) = (   0.0000000   0.2500000  -0.5000000), wk =   0.0468750
        k(   13) = (   0.0000000   0.3750000   0.3750000), wk =   0.0468750
        k(   14) = (   0.0000000   0.3750000  -0.5000000), wk =   0.0468750
        k(   15) = (   0.0000000  -0.5000000  -0.5000000), wk =   0.0117188
        k(   16) = (   0.1250000   0.1250000   0.1250000), wk =   0.0312500
        k(   17) = (   0.1250000   0.1250000   0.2500000), wk =   0.0937500
        k(   18) = (   0.1250000   0.1250000   0.3750000), wk =   0.0937500
        k(   19) = (   0.1250000   0.1250000  -0.5000000), wk =   0.0468750
        k(   20) = (   0.1250000   0.2500000   0.2500000), wk =   0.0937500
        k(   21) = (   0.1250000   0.2500000   0.3750000), wk =   0.1875000
        k(   22) = (   0.1250000   0.2500000  -0.5000000), wk =   0.0937500
        k(   23) = (   0.1250000   0.3750000   0.3750000), wk =   0.0937500
        k(   24) = (   0.1250000   0.3750000  -0.5000000), wk =   0.0937500
        k(   25) = (   0.1250000  -0.5000000  -0.5000000), wk =   0.0234375
        k(   26) = (   0.2500000   0.2500000   0.2500000), wk =   0.0312500
        k(   27) = (   0.2500000   0.2500000   0.3750000), wk =   0.0937500
        k(   28) = (   0.2500000   0.2500000  -0.5000000), wk =   0.0468750
        k(   29) = (   0.2500000   0.3750000   0.3750000), wk =   0.0937500
        k(   30) = (   0.2500000   0.3750000  -0.5000000), wk =   0.0937500
        k(   31) = (   0.2500000  -0.5000000  -0.5000000), wk =   0.0234375
        k(   32) = (   0.3750000   0.3750000   0.3750000), wk =   0.0312500
        k(   33) = (   0.3750000   0.3750000  -0.5000000), wk =   0.0468750
        k(   34) = (   0.3750000  -0.5000000  -0.5000000), wk =   0.0234375
        k(   35) = (  -0.5000000  -0.5000000  -0.5000000), wk =   0.0039062

     Dense  grid:   301651 G-vectors     FFT dimensions: (  90,  90,  90)

     Estimated max dynamical RAM per process >      20.17 MB

     Estimated total dynamical RAM >       2.31 GB

     Initial potential from superposition of free atoms

     starting charge      31.9946, renormalised to      32.0000
     Starting wfcs are   32 randomized atomic wfcs

     total cpu time spent up to now is       11.8 secs

     per-process dynamical memory:    21.0 Mb

     Self-consistent Calculation

     iteration #  1     ecut=   160.00 Ry     beta= 0.70
     Davidson diagonalization with overlap
     ethr =  1.00E-02,  avg # of iterations =  2.0

     Threshold (ethr) on eigenvalues was too large:
     Diagonalizing with lowered threshold

     Davidson diagonalization with overlap
     ethr =  6.22E-04,  avg # of iterations =  1.1

     total cpu time spent up to now is       13.2 secs

     total energy              =     -76.76412023 Ry
     estimated scf accuracy    <       0.21362342 Ry

     iteration #  2     ecut=   160.00 Ry     beta= 0.70
     Davidson diagonalization with overlap
     ethr =  6.68E-04,  avg # of iterations =  1.0

     total cpu time spent up to now is       13.8 secs

     total energy              =     -76.77181171 Ry
     estimated scf accuracy    <       0.00989918 Ry

     iteration #  3     ecut=   160.00 Ry     beta= 0.70
     Davidson diagonalization with overlap
     ethr =  3.09E-05,  avg # of iterations =  2.0

     total cpu time spent up to now is       14.6 secs

     total energy              =     -76.77327044 Ry
     estimated scf accuracy    <       0.00016702 Ry

     iteration #  4     ecut=   160.00 Ry     beta= 0.70
     Davidson diagonalization with overlap
     ethr =  5.22E-07,  avg # of iterations =  6.2

     total cpu time spent up to now is       15.9 secs

     total energy              =     -76.77357118 Ry
     estimated scf accuracy    <       0.00000047 Ry

     iteration #  5     ecut=   160.00 Ry     beta= 0.70
     Davidson diagonalization with overlap
     ethr =  1.46E-09,  avg # of iterations =  8.9

     total cpu time spent up to now is       17.9 secs

     total energy              =     -76.77357776 Ry
     estimated scf accuracy    <       0.00000012 Ry

     iteration #  6     ecut=   160.00 Ry     beta= 0.70
     Davidson diagonalization with overlap
     ethr =  3.90E-10,  avg # of iterations =  2.4

     total cpu time spent up to now is       18.7 secs

     End of self-consistent calculation

          k = 0.0000 0.0000 0.0000 ( 37561 PWs)   bands (ev):

    -5.8397  -1.7731  -1.7730  -1.7730  -1.7730  -1.7729  -1.7729   3.1787
     3.1787   3.1787   3.1788   3.1788   3.1788   5.9739   5.9739   5.9739

          k = 0.0000 0.0000 0.1250 ( 37721 PWs)   bands (ev):

    -5.7725  -2.6791  -1.7521  -1.7520  -1.7520  -1.7520  -0.7868   2.9989
     2.9989   2.9989   2.9990   3.2394   3.2394   5.5413   5.7185   5.7185

          k = 0.0000 0.0000 0.2500 ( 37714 PWs)   bands (ev):

    -5.5717  -3.4897  -1.6994  -1.6993  -1.6993  -1.6993   0.2604   2.6348
     2.6348   2.6348   2.6348   3.4203   3.4203   4.6203   5.1872   5.1872

          k = 0.0000 0.0000 0.3750 ( 37786 PWs)   bands (ev):

    -5.2390  -4.1922  -1.6432  -1.6431  -1.6431  -1.6430   1.3477   2.3292
     2.3292   2.3292   2.3292   3.5564   3.7179   3.7179   4.6256   4.6256

          k = 0.0000 0.0000-0.5000 ( 37746 PWs)   bands (ev):

    -4.7776  -4.7775  -1.6187  -1.6186  -1.6186  -1.6186   2.2136   2.2136
     2.2136   2.2136   2.4537   2.4538   4.1246   4.1246   4.1247   4.1247

          k = 0.0000 0.1250 0.1250 ( 37749 PWs)   bands (ev):

    -5.7057  -2.6409  -2.6408  -1.8447  -1.6271  -0.7940  -0.7939   2.5247
     3.0241   3.0241   3.1101   3.1102   3.2857   4.9237   5.4620   5.9104

          k = 0.0000 0.1250 0.2500 ( 37743 PWs)   bands (ev):

    -5.5059  -3.4404  -2.5324  -1.9316  -1.4608  -0.8281   0.2077   2.1086
     2.5804   2.8639   3.1811   3.2130   3.3613   4.0811   4.9270   5.5551

          k = 0.0000 0.1250 0.3750 ( 37725 PWs)   bands (ev):

    -5.1751  -4.1359  -2.3739  -2.0450  -1.2646  -0.9162   1.2222   1.8872
     2.1653   2.7103   2.9549   3.1744   3.4639   3.7541   4.3629   4.9178

          k = 0.0000 0.1250-0.5000 ( 37736 PWs)   bands (ev):

    -4.7167  -4.7166  -2.1990  -2.1989  -1.0696  -1.0696   1.9115   1.9115
     2.2186   2.2186   2.7469   2.7469   3.8634   3.8634   4.2832   4.2832

          k = 0.0000 0.2500 0.2500 ( 37693 PWs)   bands (ev):

    -5.3093  -3.2965  -3.2964  -2.1879  -1.1908   0.0452   0.0452   1.7744
     2.6862   2.6862   3.2778   3.2778   3.2983   3.5972   4.3848   5.6835

          k = 0.0000 0.2500 0.3750 ( 37699 PWs)   bands (ev):

    -4.9844  -3.9693  -3.0708  -2.4799  -0.8811  -0.2192   0.8913   1.6883
     2.1995   2.5013   2.9382   3.3006   3.6205   3.8170   3.8664   5.2652

          k = 0.0000 0.2500-0.5000 ( 37724 PWs)   bands (ev):

    -4.5354  -4.5353  -2.7869  -2.7868  -0.5452  -0.5452   1.7044   1.7044
     1.8443   1.8444   3.3219   3.3219   3.4484   3.4485   4.5730   4.5730

          k = 0.0000 0.3750 0.3750 ( 37726 PWs)   bands (ev):

    -4.6702  -3.7004  -3.7004  -2.9257  -0.4680   0.4502   0.4502   1.7322
     1.7994   2.4077   2.4077   3.2508   4.0352   4.0353   4.0812   5.2500

          k = 0.0000 0.3750-0.5000 ( 37718 PWs)   bands (ev):

    -4.2389  -4.2388  -3.3444  -3.3443  -0.0186  -0.0186   1.1159   1.1159
     1.9865   1.9865   2.7668   2.7668   4.1713   4.1713   4.7678   4.7679

          k = 0.0000-0.5000-0.5000 ( 37700 PWs)   bands (ev):

    -3.8367  -3.8365  -3.8365  -3.8365   0.5335   0.5335   0.5335   0.5335
     2.3054   2.3054   2.3054   2.3054   4.6705   4.6705   4.6706   4.6706

          k = 0.1250 0.1250 0.1250 ( 37743 PWs)   bands (ev):

    -5.6393  -2.6108  -2.6107  -2.6107  -0.8058  -0.8058  -0.8058   2.6158
     2.6158   2.6158   3.3450   3.3450   3.3451   4.3824   5.6913   5.6913

          k = 0.1250 0.1250 0.2500 ( 37738 PWs)   bands (ev):

    -5.4406  -3.3947  -2.5324  -2.5323  -0.8450  -0.8450   0.1347   2.2283
     2.2284   2.8925   3.2876   3.2876   3.5218   3.5848   5.2113   5.4342

          k = 0.1250 0.1250 0.3750 ( 37721 PWs)   bands (ev):

    -5.1118  -4.0814  -2.4434  -2.4433  -0.9029  -0.9029   1.0573   2.0066
     2.0066   2.7671   3.0820   3.0820   3.3592   3.8114   4.6845   4.7481

          k = 0.1250 0.1250-0.5000 ( 37730 PWs)   bands (ev):

    -4.6568  -4.6567  -2.4025  -2.4024  -0.9337  -0.9337   1.9329   1.9330
     1.9429   1.9429   2.9801   2.9801   4.0006   4.0007   4.2050   4.2051

          k = 0.1250 0.2500 0.2500 ( 37740 PWs)   bands (ev):

    -5.2455  -3.2635  -3.2634  -2.5565  -0.8672  -0.0730  -0.0729   1.9687
     2.5754   2.5754   2.8256   3.5181   3.5182   3.6518   4.8143   5.5540

          k = 0.1250 0.2500 0.3750 ( 37696 PWs)   bands (ev):

    -4.9233  -3.9213  -3.0665  -2.6562  -0.8166  -0.3612   0.6583   1.9361
     2.0770   2.3131   3.0906   3.4714   3.6853   3.9261   4.2480   5.1651

          k = 0.1250 0.2500-0.5000 ( 37728 PWs)   bands (ev):

    -4.4792  -4.4791  -2.8437  -2.8436  -0.6377  -0.6376   1.3620   1.3620
     2.0803   2.0803   3.5496   3.5496   3.6677   3.6677   4.5158   4.5158

          k = 0.1250 0.3750 0.3750 ( 37741 PWs)   bands (ev):

    -4.6135  -3.6664  -3.6663  -2.9800  -0.6001   0.1854   0.1854   1.3918
     2.0646   2.7179   2.7179   3.7072   4.0857   4.0858   4.1244   5.2115

          k = 0.1250 0.3750-0.5000 ( 37722 PWs)   bands (ev):

    -4.1901  -4.1900  -3.3390  -3.3389  -0.2543  -0.2542   0.7613   0.7613
     2.3466   2.3467   3.1857   3.1858   4.2144   4.2144   4.7613   4.7614

          k = 0.1250-0.5000-0.5000 ( 37736 PWs)   bands (ev):

    -3.8024  -3.8022  -3.8022  -3.8022   0.2135   0.2136   0.2136   0.2136
     2.7258   2.7258   2.7258   2.7259   4.6875   4.6875   4.6876   4.6877

          k = 0.2500 0.2500 0.2500 ( 37740 PWs)   bands (ev):

    -5.0551  -3.1771  -3.1769  -3.1769  -0.3503  -0.3503  -0.3503   2.0870
     2.5116   2.5117   2.5117   3.8132   3.8132   3.8133   5.2281   5.2281

          k = 0.2500 0.2500 0.3750 ( 37722 PWs)   bands (ev):

    -4.7421  -3.7834  -3.0783  -3.0782  -0.6213  -0.6213   0.1784   1.3806
     2.5507   2.5508   3.2920   3.8841   3.8841   4.0741   4.8208   4.9387

          k = 0.2500 0.2500-0.5000 ( 37796 PWs)   bands (ev):

    -4.3137  -4.3136  -3.0327  -3.0326  -0.7336  -0.7336   0.7457   0.7458
     2.5864   2.5865   3.8628   3.8628   4.1647   4.1647   4.4192   4.4193

          k = 0.2500 0.3750 0.3750 ( 37764 PWs)   bands (ev):

    -4.4467  -3.5772  -3.5771  -3.1637  -0.7513  -0.2958  -0.2958   0.7202
     2.8249   3.2931   3.2932   4.2344   4.2345   4.2492   4.4634   5.0942

          k = 0.2500 0.3750-0.5000 ( 37736 PWs)   bands (ev):

    -4.0502  -4.0501  -3.3473  -3.3472  -0.6346  -0.6346   0.1546   0.1547
     3.0993   3.0994   3.9505   3.9505   4.3407   4.3408   4.7281   4.7282

          k = 0.2500-0.5000-0.5000 ( 37756 PWs)   bands (ev):

    -3.7125  -3.7123  -3.7123  -3.7123  -0.3230  -0.3230  -0.3230  -0.3229
     3.5526   3.5527   3.5527   3.5528   4.7301   4.7301   4.7302   4.7302

          k = 0.3750 0.3750 0.3750 ( 37743 PWs)   bands (ev):

    -4.1811  -3.4754  -3.4752  -3.4752  -0.6840  -0.6840  -0.6839   0.1033
     3.7276   3.7278   3.7278   4.4409   4.4409   4.4410   4.9049   4.9049

          k = 0.3750 0.3750-0.5000 ( 37766 PWs)   bands (ev):

    -3.8412  -3.8411  -3.4282  -3.4281  -0.8323  -0.8322  -0.3819  -0.3818
     3.8735   3.8736   4.5466   4.5466   4.5543   4.5543   4.6726   4.6727

          k = 0.3750-0.5000-0.5000 ( 37780 PWs)   bands (ev):

    -3.6099  -3.6097  -3.6097  -3.6097  -0.7380  -0.7380  -0.7380  -0.7380
     4.3824   4.3825   4.3825   4.3826   4.7748   4.7748   4.7749   4.7749

          k =-0.5000-0.5000-0.5000 ( 37752 PWs)   bands (ev):

    -3.5624  -3.5622  -3.5622  -3.5622  -0.8943  -0.8943  -0.8943  -0.8942
     4.7940   4.7940   4.7940   4.7941   4.7941   4.7941   4.7942   4.7942

     highest occupied level (ev):     5.9739

!    total energy              =     -76.77357778 Ry
     estimated scf accuracy    <          9.9E-09 Ry

     The total energy is the sum of the following terms:
     one-electron contribution =      19.79676987 Ry
     hartree contribution      =       4.54026925 Ry
     xc contribution           =     -34.39496967 Ry
     ewald contribution        =     -66.71564723 Ry

     convergence has been achieved in   6 iterations

     Writing all to output data dir ./si-scf-van/silicon.save/ :
     XML data file, charge density, pseudopotentials, collected wavefunctions

     init_run     :      1.01s CPU      4.30s WALL (       1 calls)
     electrons    :      6.70s CPU      7.00s WALL (       1 calls)

     Called by init_run:
     wfcinit      :      0.37s CPU      3.53s WALL (       1 calls)
     potinit      :      0.02s CPU      0.04s WALL (       1 calls)
     hinit0       :      0.40s CPU      0.48s WALL (       1 calls)

     Called by electrons:
     c_bands      :      5.57s CPU      5.69s WALL (       7 calls)
     sum_band     :      0.82s CPU      0.83s WALL (       7 calls)
     v_of_rho     :      0.13s CPU      0.15s WALL (       7 calls)
     newd         :      0.10s CPU      0.11s WALL (       7 calls)
     mix_rho      :      0.03s CPU      0.03s WALL (       7 calls)

     Called by c_bands:
     init_us_2    :      0.22s CPU      0.23s WALL (     135 calls)
     cegterg      :      4.88s CPU      4.96s WALL (      63 calls)

     Called by *egterg:
     cdiaghg      :      0.14s CPU      3.24s WALL (     280 calls)
     h_psi        :      4.25s CPU      4.37s WALL (     298 calls)
     s_psi        :      0.32s CPU      0.33s WALL (     298 calls)
     g_psi        :      0.01s CPU      0.01s WALL (     226 calls)

     Called by h_psi:
     h_psi:calbec :      0.70s CPU      0.74s WALL (     298 calls)
     vloc_psi     :      3.18s CPU      3.24s WALL (     298 calls)
     add_vuspsi   :      0.35s CPU      0.36s WALL (     298 calls)

     General routines
     calbec       :      0.83s CPU      0.88s WALL (     361 calls)
     fft          :      0.43s CPU      0.50s WALL (      78 calls)
     ffts         :      0.01s CPU      0.01s WALL (       7 calls)
     fftw         :      3.18s CPU      3.23s WALL (    8870 calls)

     Parallel routines

     PWSCF        :      8.09s CPU     19.76s WALL


   This run was terminated on:  17:50:45  13Feb2026            

=------------------------------------------------------------------------------=
   JOB DONE.
=------------------------------------------------------------------------------=
