
     Program PWSCF v.7.3.1 starts on 19Mar2026 at 14:56:45 

     This program is part of the open-source Quantum ESPRESSO suite
     for quantum simulation of materials; please cite
         "P. Giannozzi et al., J. Phys.:Condens. Matter 21 395502 (2009);
         "P. Giannozzi et al., J. Phys.:Condens. Matter 29 465901 (2017);
         "P. Giannozzi et al., J. Chem. Phys. 152 154105 (2020);
          URL http://www.quantum-espresso.org", 
     in publications or presentations arising from this work. More details at
     http://www.quantum-espresso.org/quote

     Parallel version (MPI), running on   128 processors

     MPI processes distributed on     1 nodes
     243192 MiB available memory on the printing compute node when the environment starts

     Waiting for input...
     Reading input from standard input

     Current dimensions of program PWSCF are:
     Max number of different atomic species (ntypx) = 10
     Max number of k-points (npk) =  40000
     Max angular momentum in pseudopotentials (lmaxx) =  4

     K-points division:     npool     =       8
     R & G space division:  proc/nbgrp/npool/nimage =      16
     Subspace diagonalization in iterative solution of the eigenvalue problem:
     a serial algorithm will be used


     Parallelization info
     --------------------
     sticks:   dense  smooth     PW     G-vecs:    dense   smooth      PW
     Min          78      78     27                 1547     1547     316
     Max          79      79     28                 1550     1550     319
     Sum        1253    1253    441                24773    24773    5077

     Using Slab Decomposition



     bravais-lattice index     =            5
     lattice parameter (alat)  =      14.7021  a.u.
     unit-cell volume          =    2053.1832 (a.u.)^3
     number of atoms/cell      =           36
     number of atomic types    =            2
     number of electrons       =        96.00
     number of Kohn-Sham states=           48
     kinetic-energy cutoff     =      20.0000  Ry
     charge density cutoff     =      80.0000  Ry
     scf convergence threshold =      1.0E-07
     mixing beta               =       0.7000
     number of iterations used =            8  plain     mixing
     Exchange-correlation=  SLA  PW   PBE  PBE
                           (   1   4   3   4   0   0   0)

     celldm(1)=  14.702068  celldm(2)=   0.000000  celldm(3)=   0.000000
     celldm(4)=  -0.392337  celldm(5)=   0.000000  celldm(6)=   0.000000

     crystal axes: (cart. coord. in units of alat)
               a(1) = (   0.834367  -0.481722   0.267909 )  
               a(2) = (   0.000000   0.963444   0.267909 )  
               a(3) = (  -0.834367  -0.481722   0.267909 )  

     reciprocal axes: (cart. coord. in units 2 pi/alat)
               b(1) = (  0.599257 -0.345981  1.244203 )  
               b(2) = ( -0.000000  0.691962  1.244203 )  
               b(3) = ( -0.599257 -0.345981  1.244203 )  


     PseudoPot. # 1 for H  read from file:
     ./H.pbe-van_ak.UPF
     MD5 check sum: 077eb6d537518a38cb46c6de387227b7
     Pseudo is Ultrasoft, Zval =  1.0
     Generated by new atomic code, or converted to UPF format
     Using radial grid of  615 points,  1 beta functions with: 
                l(1) =   0
     Q(r) pseudized with  8 coefficients,  rinner =    0.800

     PseudoPot. # 2 for O  read from file:
     ./O.pbe-van_ak.UPF
     MD5 check sum: 78c19812648e8988a0fe644b0f25305e
     Pseudo is Ultrasoft, Zval =  6.0
     Generated by new atomic code, or converted to UPF format
     Using radial grid of  737 points,  4 beta functions with: 
                l(1) =   0
                l(2) =   0
                l(3) =   1
                l(4) =   1
     Q(r) pseudized with  8 coefficients,  rinner =    0.800   0.800   0.800


     atomic species   valence    mass     pseudopotential
     H                 1.00     1.00800     H ( 1.00)
     O                 6.00    16.00000     O ( 1.00)

      6 Sym. Ops., with inversion, found



   Cartesian axes

     site n.     atom                  positions (alat units)
         1        O      tau(   1) = (  -0.4847673  -0.5197781   0.3083633  )
         2        O      tau(   2) = (   0.4847673   0.5197782   0.4953638  )
         3        O      tau(   3) = (   0.6925247  -0.1599317   0.3083633  )
         4        O      tau(   4) = (  -0.6925248   0.1599317   0.4953638  )
         5        O      tau(   5) = (  -0.2077574   0.6797099   0.3083633  )
         6        O      tau(   6) = (   0.2077574  -0.6797099   0.4953638  )
         7        O      tau(   7) = (   0.1218176   0.3323883   0.4179381  )
         8        O      tau(   8) = (  -0.1218176  -0.3323883   0.3857890  )
         9        O      tau(   9) = (  -0.3487655  -0.0606970   0.4179381  )
        10        O      tau(  10) = (   0.3487655   0.0606970   0.3857890  )
        11        O      tau(  11) = (   0.2269479  -0.2716913   0.4179381  )
        12        O      tau(  12) = (  -0.2269479   0.2716912   0.3857890  )
        13        H      tau(  13) = (  -0.5381668  -0.4032014   0.2796970  )
        14        H      tau(  14) = (   0.5381668   0.4032014   0.5240301  )
        15        H      tau(  15) = (   0.6182661  -0.2644654   0.2796970  )
        16        H      tau(  16) = (  -0.6182661   0.2644654   0.5240301  )
        17        H      tau(  17) = (  -0.0800993   0.6676668   0.2796970  )
        18        H      tau(  18) = (   0.0800993  -0.6676668   0.5240301  )
        19        H      tau(  19) = (  -0.4872704  -0.4817221   0.4326731  )
        20        H      tau(  20) = (   0.4872704   0.4817221   0.3710540  )
        21        H      tau(  21) = (   0.6608188  -0.1811275   0.4326731  )
        22        H      tau(  22) = (  -0.6608188   0.1811275   0.3710540  )
        23        H      tau(  23) = (  -0.1735484   0.6628496   0.4326731  )
        24        H      tau(  24) = (   0.1735484  -0.6628496   0.3710540  )
        25        H      tau(  25) = (   0.2703349  -0.1502973   0.4058822  )
        26        H      tau(  26) = (  -0.2703350   0.1502973   0.3978449  )
        27        H      tau(  27) = (  -0.0050062   0.3092656   0.4058822  )
        28        H      tau(  28) = (   0.0050062  -0.3092656   0.3978449  )
        29        H      tau(  29) = (  -0.2653287  -0.1589683   0.4058822  )
        30        H      tau(  30) = (   0.2653287   0.1589683   0.3978449  )
        31        H      tau(  31) = (   0.3178939  -0.3347969   0.3493534  )
        32        H      tau(  32) = (  -0.3178939   0.3347969   0.4543737  )
        33        H      tau(  33) = (   0.1309957   0.4427026   0.3493534  )
        34        H      tau(  34) = (  -0.1309956  -0.4427026   0.4543737  )
        35        H      tau(  35) = (  -0.4488895  -0.1079057   0.3493534  )
        36        H      tau(  36) = (   0.4488895   0.1079057   0.4543737  )

     number of k points=    90
                       cart. coord. in units 2pi/alat
        k(    1) = (   0.0000000   0.0000000   0.0000000), wk =   0.0039062
        k(    2) = (  -0.0749071  -0.0432476   0.1555254), wk =   0.0234375
        k(    3) = (  -0.1498141  -0.0864952   0.3110508), wk =   0.0234375
        k(    4) = (  -0.2247212  -0.1297429   0.4665763), wk =   0.0234375
        k(    5) = (   0.2996283   0.1729905  -0.6221017), wk =   0.0117188
        k(    6) = (  -0.0749071   0.0432476   0.3110508), wk =   0.0234375
        k(    7) = (  -0.1498141   0.0000000   0.4665763), wk =   0.0234375
        k(    8) = (  -0.2247212  -0.0432476   0.6221017), wk =   0.0234375
        k(    9) = (   0.2996283   0.2594857  -0.4665763), wk =   0.0234375
        k(   10) = (   0.2247212   0.2162381  -0.3110508), wk =   0.0234375
        k(   11) = (   0.1498141   0.1729905  -0.1555254), wk =   0.0234375
        k(   12) = (   0.0749071   0.1297429   0.0000000), wk =   0.0234375
        k(   13) = (  -0.1498141   0.0864952   0.6221017), wk =   0.0234375
        k(   14) = (  -0.2247212   0.0432476   0.7776271), wk =   0.0234375
        k(   15) = (   0.2996283   0.3459809  -0.3110508), wk =   0.0234375
        k(   16) = (   0.2247212   0.3027333  -0.1555254), wk =   0.0234375
        k(   17) = (   0.1498141   0.2594857   0.0000000), wk =   0.0234375
        k(   18) = (  -0.2247212   0.1297429   0.9331525), wk =   0.0234375
        k(   19) = (   0.2996283   0.4324762  -0.1555254), wk =   0.0234375
        k(   20) = (   0.2247212   0.3892286   0.0000000), wk =   0.0234375
        k(   21) = (   0.2996283  -0.1729905  -1.2442034), wk =   0.0117188
        k(   22) = (   0.0000000   0.0000000   0.4665763), wk =   0.0078125
        k(   23) = (  -0.0749071  -0.0432476   0.6221017), wk =   0.0234375
        k(   24) = (  -0.1498141  -0.0864952   0.7776271), wk =   0.0234375
        k(   25) = (   0.3745354   0.2162381  -0.3110508), wk =   0.0234375
        k(   26) = (   0.2996283   0.1729905  -0.1555254), wk =   0.0234375
        k(   27) = (   0.2247212   0.1297429   0.0000000), wk =   0.0234375
        k(   28) = (   0.1498141   0.0864952   0.1555254), wk =   0.0234375
        k(   29) = (  -0.0749071   0.0432476   0.7776271), wk =   0.0234375
        k(   30) = (  -0.1498141   0.0000000   0.9331525), wk =   0.0234375
        k(   31) = (   0.3745354   0.3027333  -0.1555254), wk =   0.0234375
        k(   32) = (   0.2996283   0.2594857   0.0000000), wk =   0.0234375
        k(   33) = (   0.2247212   0.2162381   0.1555254), wk =   0.0234375
        k(   34) = (   0.1498141   0.1729905   0.3110508), wk =   0.0234375
        k(   35) = (  -0.1498141   0.0864952   1.0886779), wk =   0.0234375
        k(   36) = (   0.3745354   0.3892286   0.0000000), wk =   0.0234375
        k(   37) = (   0.2996283   0.3459809   0.1555254), wk =   0.0234375
        k(   38) = (   0.2247212   0.3027333   0.3110508), wk =   0.0234375
        k(   39) = (   0.1498141   0.2594857   0.4665763), wk =   0.0234375
        k(   40) = (   0.3745354  -0.2162381  -1.0886779), wk =   0.0234375
        k(   41) = (   0.2996283  -0.2594857  -0.9331525), wk =   0.0234375
        k(   42) = (   0.2247212  -0.3027333  -0.7776271), wk =   0.0234375
        k(   43) = (   0.1498141  -0.3459809  -0.6221017), wk =   0.0234375
        k(   44) = (   0.2996283  -0.1729905  -0.7776271), wk =   0.0234375
        k(   45) = (   0.2247212  -0.2162381  -0.6221017), wk =   0.0234375
        k(   46) = (   0.2247212  -0.1297429  -0.4665763), wk =   0.0234375
        k(   47) = (   0.0000000   0.0000000   0.9331525), wk =   0.0078125
        k(   48) = (  -0.0749071  -0.0432476   1.0886779), wk =   0.0234375
        k(   49) = (   0.4494424   0.2594857   0.0000000), wk =   0.0234375
        k(   50) = (   0.3745354   0.2162381   0.1555254), wk =   0.0234375
        k(   51) = (   0.2996283   0.1729905   0.3110508), wk =   0.0234375
        k(   52) = (  -0.0749071   0.0432476   1.2442034), wk =   0.0234375
        k(   53) = (   0.4494424   0.3459809   0.1555254), wk =   0.0234375
        k(   54) = (   0.3745354   0.3027333   0.3110508), wk =   0.0234375
        k(   55) = (   0.2996283   0.2594857   0.4665763), wk =   0.0234375
        k(   56) = (   0.4494424  -0.2594857  -0.9331525), wk =   0.0234375
        k(   57) = (   0.3745354  -0.3027333  -0.7776271), wk =   0.0234375
        k(   58) = (   0.2996283  -0.3459809  -0.6221017), wk =   0.0234375
        k(   59) = (   0.3745354  -0.2162381  -0.6221017), wk =   0.0234375
        k(   60) = (  -0.0000000   0.0000000   1.3997288), wk =   0.0078125
        k(   61) = (   0.5243495   0.3027333   0.3110508), wk =   0.0234375
        k(   62) = (   0.4494424   0.2594857   0.4665763), wk =   0.0234375
        k(   63) = (   0.5243495  -0.3027333  -0.7776271), wk =   0.0234375
        k(   64) = (   0.4494424  -0.3459809  -0.6221017), wk =   0.0234375
        k(   65) = (   0.0000000   0.0000000  -1.8663050), wk =   0.0039062
        k(   66) = (  -0.1498141   0.0000000  -0.4665763), wk =   0.0234375
        k(   67) = (  -0.2247212   0.0432476  -0.6221017), wk =   0.0234375
        k(   68) = (   0.2996283  -0.2594857   0.4665763), wk =   0.0234375
        k(   69) = (   0.2247212  -0.2162381   0.3110508), wk =   0.0234375
        k(   70) = (   0.1498141  -0.1729905   0.1555254), wk =   0.0234375
        k(   71) = (  -0.2247212  -0.0432476  -0.7776271), wk =   0.0234375
        k(   72) = (   0.2996283  -0.3459809   0.3110508), wk =   0.0234375
        k(   73) = (   0.2247212  -0.3027333   0.1555254), wk =   0.0234375
        k(   74) = (   0.2996283  -0.4324762   0.1555254), wk =   0.0234375
        k(   75) = (  -0.1498141   0.0000000  -0.9331525), wk =   0.0234375
        k(   76) = (   0.3745354  -0.3027333   0.1555254), wk =   0.0234375
        k(   77) = (   0.2996283  -0.2594857  -0.0000000), wk =   0.0234375
        k(   78) = (   0.2247212  -0.2162381  -0.1555254), wk =   0.0234375
        k(   79) = (   0.1498141  -0.1729905  -0.3110508), wk =   0.0234375
        k(   80) = (   0.3745354  -0.3892286  -0.0000000), wk =   0.0234375
        k(   81) = (   0.2996283  -0.3459809  -0.1555254), wk =   0.0234375
        k(   82) = (   0.2247212  -0.3027333  -0.3110508), wk =   0.0234375
        k(   83) = (   0.1498141  -0.2594857  -0.4665763), wk =   0.0234375
        k(   84) = (   0.2996283   0.2594857   0.9331525), wk =   0.0234375
        k(   85) = (   0.2247212   0.3027333   0.7776271), wk =   0.0234375
        k(   86) = (   0.2247212   0.2162381   0.6221017), wk =   0.0234375
        k(   87) = (   0.4494424  -0.3459809  -0.1555254), wk =   0.0234375
        k(   88) = (   0.3745354  -0.3027333  -0.3110508), wk =   0.0234375
        k(   89) = (   0.2996283  -0.2594857  -0.4665763), wk =   0.0234375
        k(   90) = (   0.3745354   0.3027333   0.7776271), wk =   0.0234375

     Dense  grid:    24773 G-vectors     FFT dimensions: (  45,  45,  45)

     Estimated max dynamical RAM per process >       5.07 MB

     Estimated total dynamical RAM >     606.38 MB

     Initial potential from superposition of free atoms

     starting charge      95.9998, renormalised to      96.0000

     negative rho (up, down):  7.718E-04 0.000E+00
     Starting wfcs are   72 randomized atomic wfcs

     total cpu time spent up to now is        0.7 secs

     per-process dynamical memory:    11.2 Mb

     Self-consistent Calculation

     iteration #  1     ecut=    20.00 Ry     beta= 0.70
     Davidson diagonalization with overlap
     ethr =  1.00E-02,  avg # of iterations =  2.0

     negative rho (up, down):  8.256E-03 0.000E+00

     total cpu time spent up to now is        1.5 secs

     total energy              =    -411.46109074 Ry
     estimated scf accuracy    <       2.93553491 Ry

     iteration #  2     ecut=    20.00 Ry     beta= 0.70
     Davidson diagonalization with overlap
     ethr =  3.06E-03,  avg # of iterations =  2.0

     negative rho (up, down):  6.314E-03 0.000E+00

     total cpu time spent up to now is        2.3 secs

     total energy              =    -412.33018587 Ry
     estimated scf accuracy    <       1.56817778 Ry

     iteration #  3     ecut=    20.00 Ry     beta= 0.70
     Davidson diagonalization with overlap
     ethr =  1.63E-03,  avg # of iterations =  2.0

     negative rho (up, down):  8.265E-03 0.000E+00

     total cpu time spent up to now is        3.1 secs

     total energy              =    -412.55762823 Ry
     estimated scf accuracy    <       0.02969411 Ry

     iteration #  4     ecut=    20.00 Ry     beta= 0.70
     Davidson diagonalization with overlap
     ethr =  3.09E-05,  avg # of iterations =  3.0

     negative rho (up, down):  8.108E-03 0.000E+00

     total cpu time spent up to now is        4.0 secs

     total energy              =    -412.56711677 Ry
     estimated scf accuracy    <       0.02023307 Ry

     iteration #  5     ecut=    20.00 Ry     beta= 0.70
     Davidson diagonalization with overlap
     ethr =  2.11E-05,  avg # of iterations =  1.0

     negative rho (up, down):  8.160E-03 0.000E+00

     total cpu time spent up to now is        4.5 secs

     total energy              =    -412.56773996 Ry
     estimated scf accuracy    <       0.00353920 Ry

     iteration #  6     ecut=    20.00 Ry     beta= 0.70
     Davidson diagonalization with overlap
     ethr =  3.69E-06,  avg # of iterations =  2.0

     negative rho (up, down):  8.147E-03 0.000E+00

     total cpu time spent up to now is        5.2 secs

     total energy              =    -412.56752493 Ry
     estimated scf accuracy    <       0.00122654 Ry

     iteration #  7     ecut=    20.00 Ry     beta= 0.70
     Davidson diagonalization with overlap
     ethr =  1.28E-06,  avg # of iterations =  2.0

     negative rho (up, down):  8.115E-03 0.000E+00

     total cpu time spent up to now is        6.0 secs

     total energy              =    -412.56773886 Ry
     estimated scf accuracy    <       0.00001625 Ry

     iteration #  8     ecut=    20.00 Ry     beta= 0.70
     Davidson diagonalization with overlap
     ethr =  1.69E-08,  avg # of iterations =  2.6

     negative rho (up, down):  8.105E-03 0.000E+00

     total cpu time spent up to now is        6.8 secs

     total energy              =    -412.56774573 Ry
     estimated scf accuracy    <       0.00000024 Ry

     iteration #  9     ecut=    20.00 Ry     beta= 0.70
     Davidson diagonalization with overlap
     ethr =  2.50E-10,  avg # of iterations =  4.1

     negative rho (up, down):  8.100E-03 0.000E+00

     total cpu time spent up to now is        7.9 secs

     total energy              =    -412.56774523 Ry
     estimated scf accuracy    <       0.00000293 Ry

     iteration # 10     ecut=    20.00 Ry     beta= 0.70
     Davidson diagonalization with overlap
     ethr =  2.50E-10,  avg # of iterations =  3.0

     negative rho (up, down):  8.098E-03 0.000E+00

     total cpu time spent up to now is        8.9 secs

     total energy              =    -412.56774555 Ry
     estimated scf accuracy    <       0.00000013 Ry

     iteration # 11     ecut=    20.00 Ry     beta= 0.70
     Davidson diagonalization with overlap
     ethr =  1.38E-10,  avg # of iterations =  2.0

     negative rho (up, down):  8.097E-03 0.000E+00

     total cpu time spent up to now is        9.5 secs

     End of self-consistent calculation

          k = 0.0000 0.0000 0.0000 (  3119 PWs)   bands (ev):

   -21.1031 -20.6477 -20.6477 -20.4282 -20.4282 -20.4006 -20.4006 -20.3877
   -20.3856 -20.0887 -20.0887 -19.7768  -8.1838  -7.9886  -7.9330  -7.9330
    -7.8451  -7.8451  -7.4551  -7.2797  -7.2797  -7.0568  -7.0568  -6.9249
    -6.8606  -6.0007  -6.0007  -5.4022  -5.4022  -5.3236  -5.3236  -5.0434
    -4.8374  -4.1959  -4.1959  -3.5210  -2.8395  -2.8395  -2.7559  -2.6537
    -2.6296  -2.6296  -2.4677  -2.4677  -2.4519  -2.4404  -2.3980  -2.3980

          k =-0.0749-0.0432 0.1555 (  3125 PWs)   bands (ev):

   -21.0854 -20.6617 -20.6441 -20.4882 -20.4779 -20.4387 -20.3688 -20.3432
   -20.3216 -20.0898 -20.0753 -19.7914  -8.1724  -8.0088  -7.9683  -7.9386
    -7.8328  -7.7994  -7.4649  -7.2824  -7.2702  -7.0580  -7.0190  -6.9391
    -6.8264  -6.0360  -5.9940  -5.5715  -5.3756  -5.3528  -5.1625  -5.0341
    -4.8660  -4.1962  -4.1747  -3.5663  -2.8783  -2.8592  -2.7575  -2.6759
    -2.6422  -2.6264  -2.5266  -2.4978  -2.4606  -2.4149  -2.3892  -2.3664

          k =-0.1498-0.0865 0.3111 (  3118 PWs)   bands (ev):

   -21.0309 -20.6885 -20.6364 -20.5718 -20.5464 -20.4750 -20.3334 -20.2903
   -20.2363 -20.0932 -20.0519 -19.8347  -8.1265  -8.0543  -7.9734  -7.9256
    -7.8181  -7.7620  -7.4474  -7.2562  -7.2418  -7.0814  -6.9529  -6.9327
    -6.7230  -6.1430  -6.0043  -5.7382  -5.4203  -5.2852  -5.1512  -4.9224
    -4.8621  -4.1894  -4.1269  -3.6678  -2.9679  -2.8906  -2.7726  -2.7220
    -2.6626  -2.6257  -2.5861  -2.5203  -2.4607  -2.4080  -2.3672  -2.3163

          k =-0.2247-0.1297 0.4666 (  3094 PWs)   bands (ev):

   -20.9455 -20.7358 -20.6577 -20.6387 -20.5657 -20.5105 -20.3000 -20.2651
   -20.1473 -20.0913 -20.0279 -19.9014  -8.0913  -8.0580  -7.9659  -7.9123
    -7.8167  -7.7554  -7.3975  -7.2338  -7.2065  -7.1028  -6.8858  -6.8773
    -6.5836  -6.2675  -6.0203  -5.8424  -5.4384  -5.2678  -5.1697  -4.9530
    -4.6176  -4.2219  -4.0806  -3.7889  -3.0468  -2.8975  -2.7795  -2.7513
    -2.6795  -2.6543  -2.5774  -2.5276  -2.4881  -2.3741  -2.3504  -2.2766

          k = 0.2996 0.1730-0.6221 (  3096 PWs)   bands (ev):

   -20.8397 -20.8392 -20.6704 -20.6551 -20.5469 -20.5421 -20.2782 -20.2690
   -20.0976 -20.0957 -19.9876 -19.9698  -8.1033  -8.0376  -7.9584  -7.9291
    -7.8213  -7.7566  -7.3742  -7.2449  -7.2030  -7.0995  -6.8582  -6.8541
    -6.4806  -6.3603  -6.0428  -5.8825  -5.4183  -5.3392  -5.1359  -4.9730
    -4.4350  -4.3291  -4.0650  -3.8447  -3.0744  -2.8949  -2.7889  -2.7631
    -2.6968  -2.6779  -2.5743  -2.5276  -2.5128  -2.3714  -2.3396  -2.2669

          k =-0.0749 0.0432 0.3111 (  3127 PWs)   bands (ev):

   -21.0444 -20.6729 -20.6471 -20.5346 -20.5274 -20.4899 -20.3214 -20.3078
   -20.2824 -20.0818 -20.0610 -19.8226  -8.1330  -8.0387  -7.9907  -7.9425
    -7.8037  -7.7630  -7.4473  -7.2979  -7.2365  -7.0450  -6.9873  -6.9408
    -6.7290  -6.1017  -6.0570  -5.6344  -5.4452  -5.2825  -5.0925  -5.0235
    -4.9402  -4.1658  -4.1344  -3.6559  -2.9566  -2.9204  -2.7679  -2.7169
    -2.6395  -2.6324  -2.6004  -2.5086  -2.4541  -2.4055  -2.3815  -2.3432

          k =-0.1498 0.0000 0.4666 (  3108 PWs)   bands (ev):

   -20.9699 -20.7036 -20.6725 -20.6036 -20.5549 -20.5290 -20.2934 -20.2668
   -20.2047 -20.0714 -20.0433 -19.8797  -8.0905  -8.0502  -8.0019  -7.9114
    -7.8078  -7.7448  -7.4044  -7.2739  -7.2070  -7.0519  -6.9353  -6.8975
    -6.6076  -6.2088  -6.0974  -5.7352  -5.4591  -5.3093  -5.1029  -4.9733
    -4.7782  -4.1556  -4.0911  -3.7777  -3.0315  -2.9468  -2.7617  -2.7486
    -2.6682  -2.6517  -2.6100  -2.5172  -2.4766  -2.3831  -2.3639  -2.2947

          k =-0.2247-0.0432 0.6221 (  3091 PWs)   bands (ev):

   -20.8703 -20.7921 -20.6968 -20.6341 -20.5744 -20.5319 -20.2806 -20.2439
   -20.1304 -20.0717 -20.0109 -19.9520  -8.1071  -8.0259  -7.9734  -7.9058
    -7.8334  -7.7453  -7.3751  -7.2638  -7.2194  -7.0414  -6.8815  -6.8519
    -6.4792  -6.3464  -6.0984  -5.7979  -5.4978  -5.3448  -5.0294  -4.9888
    -4.5373  -4.2429  -4.0756  -3.8454  -3.0608  -2.9155  -2.7764  -2.7541
    -2.6992  -2.6617  -2.6010  -2.5105  -2.5075  -2.3766  -2.3440  -2.2571

          k = 0.2996 0.2595-0.4666 (  3088 PWs)   bands (ev):

   -20.8997 -20.7651 -20.7020 -20.6204 -20.6017 -20.5076 -20.2934 -20.2247
   -20.1244 -20.0896 -20.0167 -19.9401  -8.1056  -8.0555  -7.9305  -7.9131
    -7.8464  -7.7532  -7.3788  -7.2825  -7.2137  -7.0390  -6.8803  -6.8430
    -6.5434  -6.3219  -6.0670  -5.8244  -5.5740  -5.2759  -5.0258  -4.9424
    -4.4750  -4.3015  -4.0771  -3.8315  -3.0406  -2.8865  -2.7907  -2.7418
    -2.6953  -2.6573  -2.5610  -2.5340  -2.4905  -2.3826  -2.3467  -2.2477

          k = 0.2247 0.2162-0.3111 (  3101 PWs)   bands (ev):

   -20.9925 -20.7201 -20.6391 -20.6210 -20.5741 -20.4809 -20.3162 -20.2345
   -20.1898 -20.1038 -20.0422 -19.8683  -8.1164  -8.0858  -7.9361  -7.9064
    -7.8507  -7.7566  -7.4353  -7.2969  -7.1899  -7.0639  -6.9333  -6.8774
    -6.6983  -6.2152  -5.9963  -5.7885  -5.5935  -5.2118  -5.0531  -4.8780
    -4.6833  -4.2284  -4.1201  -3.7294  -2.9690  -2.8693  -2.7893  -2.7243
    -2.6787  -2.6271  -2.5623  -2.5268  -2.4622  -2.4054  -2.3648  -2.2784

          k = 0.1498 0.1730-0.1555 (  3120 PWs)   bands (ev):

   -21.0582 -20.6936 -20.6493 -20.5368 -20.5197 -20.4514 -20.3465 -20.2874
   -20.2621 -20.0987 -20.0648 -19.8155  -8.1634  -8.0598  -7.9407  -7.9261
    -7.8498  -7.7733  -7.4711  -7.3219  -7.1887  -7.0678  -6.9961  -6.9193
    -6.8143  -6.1143  -5.9553  -5.6998  -5.5790  -5.2011  -5.0482  -4.9490
    -4.8047  -4.2183  -4.1719  -3.6121  -2.8888  -2.8430  -2.7753  -2.6991
    -2.6604  -2.6288  -2.5376  -2.4978  -2.4493  -2.4384  -2.3862  -2.3238

          k = 0.0749 0.1297 0.0000 (  3129 PWs)   bands (ev):

   -21.0900 -20.6647 -20.6545 -20.4834 -20.4770 -20.4182 -20.3828 -20.3359
   -20.3153 -20.0904 -20.0838 -19.7888  -8.1820  -8.0319  -7.9507  -7.9118
    -7.8372  -7.8299  -7.4780  -7.3043  -7.2356  -7.0616  -7.0535  -6.9285
    -6.8622  -6.0265  -5.9854  -5.5722  -5.5468  -5.1896  -5.1692  -5.0337
    -4.7996  -4.2129  -4.1922  -3.5527  -2.8430  -2.8372  -2.7660  -2.6708
    -2.6500  -2.6394  -2.4900  -2.4752  -2.4600  -2.4537  -2.3925  -2.3709

          k =-0.1498 0.0865 0.6221 (  3094 PWs)   bands (ev):

   -20.8813 -20.7448 -20.7352 -20.6183 -20.5958 -20.5305 -20.2832 -20.2037
   -20.1680 -20.0515 -20.0338 -19.9432  -8.1134  -8.0124  -7.9949  -7.8904
    -7.8378  -7.7438  -7.3815  -7.2822  -7.2246  -6.9911  -6.9123  -6.8517
    -6.4862  -6.2952  -6.1887  -5.7169  -5.5464  -5.3778  -5.0545  -4.8572
    -4.6543  -4.1521  -4.1255  -3.8518  -3.0455  -2.9499  -2.7729  -2.7333
    -2.7096  -2.6523  -2.6027  -2.5143  -2.4996  -2.3769  -2.3534  -2.2585

          k =-0.2247 0.0432 0.7776 (  3097 PWs)   bands (ev):

   -20.8387 -20.7843 -20.7604 -20.6301 -20.6030 -20.5159 -20.2789 -20.1871
   -20.1369 -20.0602 -20.0131 -19.9810  -8.1307  -8.0436  -7.9460  -7.8909
    -7.8653  -7.7564  -7.3849  -7.3104  -7.2425  -6.9498  -6.8889  -6.8416
    -6.4566  -6.3906  -6.1807  -5.7222  -5.6889  -5.2948  -5.0374  -4.8082
    -4.4566  -4.2988  -4.1142  -3.8764  -3.0165  -2.9208  -2.7957  -2.7271
    -2.7037  -2.6487  -2.5894  -2.5346  -2.4926  -2.3941  -2.3488  -2.2507

          k = 0.2996 0.3460-0.3111 (  3097 PWs)   bands (ev):

   -20.9329 -20.7770 -20.6725 -20.6476 -20.5671 -20.4985 -20.2867 -20.1855
   -20.1771 -20.0894 -20.0288 -19.9190  -8.1232  -8.0909  -7.9300  -7.9077
    -7.8519  -7.7568  -7.4146  -7.3492  -7.2174  -6.9594  -6.9266  -6.8427
    -6.6212  -6.3328  -6.0890  -5.7506  -5.7003  -5.2015  -5.0206  -4.7634
    -4.5313  -4.3022  -4.0972  -3.8273  -2.9512  -2.8790  -2.7937  -2.7249
    -2.6690  -2.6311  -2.5586  -2.5404  -2.4668  -2.4196  -2.3560  -2.2557

          k = 0.2247 0.3027-0.1555 (  3101 PWs)   bands (ev):

   -21.0064 -20.7584 -20.6656 -20.5832 -20.5289 -20.4675 -20.3123 -20.2479
   -20.2012 -20.1044 -20.0416 -19.8599  -8.1407  -8.0902  -7.9397  -7.9296
    -7.8224  -7.7611  -7.4711  -7.3660  -7.1693  -7.0025  -6.9767  -6.8641
    -6.7708  -6.2381  -5.9926  -5.7405  -5.6733  -5.1582  -5.0003  -4.7539
    -4.7062  -4.2758  -4.1291  -3.7070  -2.8835  -2.8425  -2.7848  -2.7105
    -2.6517  -2.6253  -2.5363  -2.5074  -2.4568  -2.4457  -2.3571  -2.2822

          k = 0.1498 0.2595 0.0000 (  3119 PWs)   bands (ev):

   -21.0498 -20.7229 -20.6670 -20.5391 -20.5118 -20.4303 -20.3530 -20.2812
   -20.2421 -20.0979 -20.0626 -19.8242  -8.1685  -8.0732  -7.9636  -7.9152
    -7.8037  -7.7932  -7.5048  -7.3434  -7.1608  -7.0625  -7.0029  -6.8908
    -6.8566  -6.1256  -5.9873  -5.7329  -5.6153  -5.1626  -5.0245  -4.8979
    -4.7126  -4.2614  -4.1740  -3.6226  -2.8450  -2.8297  -2.7813  -2.7037
    -2.6612  -2.6349  -2.5115  -2.4966  -2.4664  -2.4469  -2.3542  -2.3322

          k =-0.2247 0.1297 0.9332 (  3104 PWs)   bands (ev):

   -20.8711 -20.8428 -20.6835 -20.6600 -20.5545 -20.5109 -20.2718 -20.1942
   -20.1514 -20.0845 -19.9959 -19.9652  -8.1357  -8.0711  -7.9440  -7.9208
    -7.8291  -7.7645  -7.4348  -7.3526  -7.2273  -6.9470  -6.9025  -6.8452
    -6.4852  -6.4668  -6.1654  -5.8026  -5.6197  -5.2450  -5.0583  -4.6436
    -4.4442  -4.3752  -4.1242  -3.8683  -2.9477  -2.8913  -2.8004  -2.7382
    -2.6572  -2.6299  -2.5655  -2.5626  -2.4809  -2.4088  -2.3533  -2.2477

          k = 0.2996 0.4325-0.1555 (  3095 PWs)   bands (ev):

   -20.9362 -20.8437 -20.6747 -20.6096 -20.5154 -20.4864 -20.2771 -20.2507
   -20.1545 -20.1174 -19.9902 -19.9192  -8.1364  -8.1044  -7.9533  -7.9262
    -7.7957  -7.7595  -7.4597  -7.3954  -7.1810  -7.0125  -6.9092  -6.8443
    -6.6203  -6.4225  -6.0657  -5.8185  -5.5885  -5.2166  -4.9617  -4.6295
    -4.5669  -4.3884  -4.0538  -3.8223  -2.8776  -2.8531  -2.7796  -2.7213
    -2.6487  -2.6107  -2.5522  -2.5281  -2.4534  -2.4455  -2.3355  -2.2566

          k = 0.2247 0.3892 0.0000 (  3100 PWs)   bands (ev):

   -20.9866 -20.8091 -20.6771 -20.5753 -20.5141 -20.4451 -20.3177 -20.2602
   -20.1848 -20.1126 -20.0132 -19.8777  -8.1528  -8.1011  -7.9623  -7.9246
    -7.7806  -7.7731  -7.5003  -7.3849  -7.1402  -7.0734  -6.9292  -6.8491
    -6.7509  -6.3068  -6.0314  -5.8071  -5.5618  -5.2175  -4.9282  -4.7032
    -4.6233  -4.3511  -4.0948  -3.7371  -2.8512  -2.8106  -2.7955  -2.7122
    -2.6571  -2.6092  -2.5309  -2.5070  -2.4730  -2.4482  -2.3197  -2.2953

          k = 0.2996-0.1730-1.2442 (  3094 PWs)   bands (ev):

   -20.9211 -20.8847 -20.6813 -20.5876 -20.5104 -20.4530 -20.2974 -20.2633
   -20.1519 -20.1306 -19.9524 -19.9377  -8.1481  -8.1094  -7.9570  -7.9289
    -7.7689  -7.7669  -7.4791  -7.4052  -7.1389  -7.0872  -6.9050  -6.8442
    -6.5602  -6.5095  -6.0542  -5.8351  -5.5066  -5.2645  -4.8976  -4.6313
    -4.5256  -4.4621  -4.0129  -3.8338  -2.8636  -2.8006  -2.7978  -2.7238
    -2.6474  -2.5735  -2.5552  -2.5012  -2.4882  -2.4384  -2.3116  -2.2825

          k = 0.0000 0.0000 0.4666 (  3116 PWs)   bands (ev):

   -20.9831 -20.6827 -20.6827 -20.5626 -20.5626 -20.5527 -20.2677 -20.2677
   -20.2458 -20.0603 -20.0603 -19.8695  -8.0740  -8.0454  -8.0454  -7.9132
    -7.7713  -7.7713  -7.4151  -7.2582  -7.2582  -6.9786  -6.9786  -6.9127
    -6.6155  -6.1689  -6.1689  -5.5684  -5.5684  -5.2769  -5.0067  -5.0067
    -4.9464  -4.1134  -4.1134  -3.7772  -2.9860  -2.9860  -2.7535  -2.7256
    -2.6655  -2.6513  -2.6513  -2.4942  -2.4942  -2.3893  -2.3893  -2.3010

          k =-0.0749-0.0432 0.6221 (  3097 PWs)   bands (ev):

   -20.8933 -20.7492 -20.7156 -20.6153 -20.5889 -20.5516 -20.2504 -20.2156
   -20.1759 -20.0575 -20.0412 -19.9369  -8.0835  -8.0465  -8.0039  -7.8943
    -7.8065  -7.7715  -7.3907  -7.2658  -7.2544  -6.9671  -6.9015  -6.8482
    -6.5087  -6.2985  -6.2157  -5.6499  -5.4926  -5.4532  -4.9670  -4.9093
    -4.7324  -4.1347  -4.0892  -3.8918  -3.0225  -2.9642  -2.7303  -2.7256
    -2.7059  -2.6571  -2.6328  -2.5131  -2.5027  -2.3877  -2.3712  -2.2580

          k =-0.1498-0.0865 0.7776 (  3089 PWs)   bands (ev):

   -20.8479 -20.7887 -20.7378 -20.6495 -20.5921 -20.5236 -20.2585 -20.1774
   -20.1458 -20.0666 -20.0109 -19.9872  -8.0991  -8.0576  -7.9404  -7.8939
    -7.8359  -7.7802  -7.3915  -7.2901  -7.2520  -6.9557  -6.8631  -6.8237
    -6.4967  -6.3688  -6.2266  -5.7305  -5.5648  -5.3725  -4.9744  -4.8349
    -4.5106  -4.2472  -4.1100  -3.9035  -3.0116  -2.9008  -2.7588  -2.7336
    -2.6941  -2.6477  -2.5981  -2.5259  -2.5100  -2.3910  -2.3611  -2.2403

          k = 0.3745 0.2162-0.3111 (  3102 PWs)   bands (ev):

   -20.9444 -20.7471 -20.6782 -20.6682 -20.5652 -20.4950 -20.2826 -20.1944
   -20.1360 -20.1186 -20.0398 -19.9134  -8.1172  -8.0777  -7.9442  -7.8937
    -7.8522  -7.7810  -7.4433  -7.3176  -7.2242  -6.9873  -6.8880  -6.8483
    -6.6555  -6.2823  -6.1683  -5.7550  -5.5960  -5.2798  -4.9894  -4.7790
    -4.5424  -4.2604  -4.1638  -3.8188  -2.9635  -2.8466  -2.7831  -2.7323
    -2.6816  -2.6237  -2.5642  -2.5391  -2.4909  -2.4101  -2.3645  -2.2543

          k = 0.2996 0.1730-0.1555 (  3096 PWs)   bands (ev):

   -21.0188 -20.7214 -20.6880 -20.5823 -20.5183 -20.4700 -20.3105 -20.2577
   -20.1998 -20.0952 -20.0626 -19.8496  -8.1457  -8.0735  -7.9551  -7.8799
    -7.8488  -7.7666  -7.4849  -7.3251  -7.1813  -7.0220  -6.9477  -6.8725
    -6.7971  -6.1717  -6.0653  -5.7068  -5.6245  -5.2023  -4.9892  -4.8078
    -4.6791  -4.2125  -4.2105  -3.6842  -2.8871  -2.8140  -2.7805  -2.7036
    -2.6643  -2.6115  -2.5407  -2.4940  -2.4558  -2.4477  -2.3682  -2.2807

          k = 0.2247 0.1297 0.0000 (  3112 PWs)   bands (ev):

   -21.0632 -20.6907 -20.6773 -20.5404 -20.4695 -20.4527 -20.3306 -20.3283
   -20.2483 -20.0907 -20.0746 -19.8119  -8.1726  -8.0578  -7.9651  -7.8967
    -7.8246  -7.7862  -7.4917  -7.3298  -7.1714  -7.0493  -7.0263  -6.9074
    -6.8533  -6.0770  -5.9911  -5.6648  -5.6310  -5.1449  -5.0320  -4.9739
    -4.7279  -4.2359  -4.1856  -3.5987  -2.8391  -2.8308  -2.7738  -2.6897
    -2.6719  -2.6215  -2.5112  -2.4810  -2.4578  -2.4428  -2.3700  -2.3329

          k = 0.1498 0.0865 0.1555 (  3123 PWs)   bands (ev):

   -21.0720 -20.6824 -20.6392 -20.5346 -20.4689 -20.4599 -20.3534 -20.3279
   -20.2801 -20.0991 -20.0640 -19.8034  -8.1678  -8.0330  -7.9883  -7.8930
    -7.8462  -7.7779  -7.4694  -7.3258  -7.2045  -7.0685  -7.0183  -6.9384
    -6.8163  -6.0529  -5.9848  -5.6716  -5.4872  -5.2535  -5.1006  -4.9835
    -4.8259  -4.2222  -4.1562  -3.5868  -2.8860  -2.8518  -2.7695  -2.7033
    -2.6449  -2.6190  -2.5354  -2.5189  -2.4402  -2.4029  -2.3876  -2.3565

          k =-0.0749 0.0432 0.7776 (  3100 PWs)   bands (ev):

   -20.8025 -20.7932 -20.7775 -20.6732 -20.5747 -20.5403 -20.2307 -20.1738
   -20.1444 -20.0422 -20.0347 -20.0042  -8.0975  -8.0657  -7.9549  -7.8787
    -7.8374  -7.7977  -7.3980  -7.2961  -7.2750  -6.8944  -6.8745  -6.8188
    -6.4543  -6.3957  -6.3136  -5.6816  -5.5840  -5.4302  -4.9227  -4.7531
    -4.6208  -4.1709  -4.1358  -3.9633  -2.9838  -2.9340  -2.7477  -2.7349
    -2.6754  -2.6497  -2.6349  -2.5229  -2.5140  -2.3993  -2.3789  -2.2411

          k =-0.1498 0.0000 0.9332 (  3091 PWs)   bands (ev):

   -20.8798 -20.8009 -20.7059 -20.6949 -20.5478 -20.5126 -20.2478 -20.1848
   -20.1266 -20.0794 -20.0293 -19.9713  -8.1096  -8.0839  -7.9291  -7.8809
    -7.8489  -7.7970  -7.4211  -7.3348  -7.2669  -6.8878  -6.8767  -6.8154
    -6.5480  -6.4097  -6.2593  -5.7665  -5.5761  -5.3366  -4.8862  -4.7105
    -4.5110  -4.2772  -4.1298  -3.9329  -2.9237  -2.8711  -2.7584  -2.7326
    -2.6463  -2.6192  -2.5845  -2.5445  -2.4920  -2.4168  -2.3736  -2.2336

          k = 0.3745 0.3027-0.1555 (  3096 PWs)   bands (ev):

   -20.9580 -20.7897 -20.7159 -20.6127 -20.5090 -20.4827 -20.2814 -20.2373
   -20.1591 -20.0879 -20.0371 -19.9043  -8.1344  -8.0949  -7.9554  -7.8919
    -7.8305  -7.7827  -7.4758  -7.3551  -7.2291  -6.9422  -6.9199  -6.8353
    -6.7074  -6.3260  -6.1561  -5.7678  -5.5806  -5.2484  -4.8646  -4.7234
    -4.6006  -4.2808  -4.1451  -3.8101  -2.8745  -2.8363  -2.7620  -2.7274
    -2.6551  -2.5865  -2.5685  -2.5197  -2.4743  -2.4388  -2.3663  -2.2491

          k = 0.2996 0.2595 0.0000 (  3104 PWs)   bands (ev):

   -21.0110 -20.7583 -20.7031 -20.5744 -20.4794 -20.4519 -20.3245 -20.2879
   -20.1905 -20.0923 -20.0455 -19.8565  -8.1551  -8.0830  -7.9935  -7.8909
    -7.8126  -7.7579  -7.5102  -7.3537  -7.1814  -7.0192  -6.9560  -6.8725
    -6.7996  -6.2066  -6.0521  -5.7708  -5.5978  -5.1974  -4.9257  -4.8186
    -4.6321  -4.2824  -4.1589  -3.6911  -2.8385  -2.8241  -2.7909  -2.7168
    -2.6887  -2.5855  -2.5446  -2.5041  -2.4658  -2.4239  -2.3564  -2.2896

          k = 0.2247 0.2162 0.1555 (  3106 PWs)   bands (ev):

   -21.0322 -20.7262 -20.6602 -20.5821 -20.4884 -20.4592 -20.3393 -20.2949
   -20.2092 -20.1073 -20.0433 -19.8367  -8.1520  -8.0511  -8.0242  -7.8638
    -7.8299  -7.7481  -7.4973  -7.3271  -7.1481  -7.0770  -6.9811  -6.9197
    -6.7742  -6.1064  -6.0055  -5.7988  -5.5683  -5.1787  -5.0914  -4.8375
    -4.6743  -4.2692  -4.1467  -3.6451  -2.8894  -2.8386  -2.7958  -2.7264
    -2.6745  -2.6004  -2.5525  -2.5113  -2.4450  -2.3760  -2.3640  -2.3249

          k = 0.1498 0.1730 0.3111 (  3114 PWs)   bands (ev):

   -21.0183 -20.7018 -20.6416 -20.5752 -20.5509 -20.4919 -20.3140 -20.2795
   -20.2358 -20.0917 -20.0426 -19.8454  -8.1296  -8.0479  -7.9987  -7.8950
    -7.8435  -7.7390  -7.4572  -7.3007  -7.1647  -7.0938  -6.9712  -6.9176
    -6.7043  -6.0994  -6.0403  -5.7859  -5.4656  -5.3114  -5.1192  -4.8783
    -4.7766  -4.2137  -4.1246  -3.6747  -2.9730  -2.8895  -2.7859  -2.7473
    -2.6526  -2.6340  -2.5604  -2.5492  -2.4451  -2.3852  -2.3508  -2.3286

          k =-0.1498 0.0865 1.0887 (  3101 PWs)   bands (ev):

   -20.8953 -20.8600 -20.7238 -20.6224 -20.4984 -20.4933 -20.2605 -20.2464
   -20.1351 -20.0993 -19.9761 -19.9675  -8.1314  -8.1010  -7.9603  -7.9071
    -7.8069  -7.7972  -7.4643  -7.3761  -7.2441  -6.9400  -6.8865  -6.8394
    -6.5353  -6.5040  -6.2140  -5.8002  -5.5078  -5.3134  -4.8518  -4.6311
    -4.5769  -4.3315  -4.0813  -3.8994  -2.8537  -2.8480  -2.7592  -2.7475
    -2.6258  -2.6151  -2.5608  -2.5359  -2.4814  -2.4404  -2.3632  -2.2472

          k = 0.3745 0.3892 0.0000 (  3098 PWs)   bands (ev):

   -20.9402 -20.8467 -20.7162 -20.5885 -20.4833 -20.4491 -20.3099 -20.2796
   -20.1554 -20.0994 -19.9877 -19.9174  -8.1447  -8.0998  -7.9980  -7.8908
    -7.8013  -7.7529  -7.5005  -7.3718  -7.1985  -7.0240  -6.9131  -6.8592
    -6.6341  -6.4021  -6.1149  -5.8126  -5.5188  -5.2668  -4.8748  -4.6651
    -4.5917  -4.3455  -4.0695  -3.8156  -2.8563  -2.8132  -2.7883  -2.7272
    -2.6751  -2.5854  -2.5415  -2.5076  -2.4743  -2.4264  -2.3368  -2.2727

          k = 0.2996 0.3460 0.1555 (  3099 PWs)   bands (ev):

   -20.9699 -20.8008 -20.6869 -20.6037 -20.4876 -20.4639 -20.3238 -20.2790
   -20.1528 -20.1098 -20.0087 -19.8879  -8.1471  -8.0714  -8.0338  -7.8800
    -7.8039  -7.7288  -7.5112  -7.3449  -7.1265  -7.0985  -6.9178  -6.9069
    -6.6670  -6.2698  -6.0380  -5.8473  -5.5635  -5.2317  -5.0256  -4.6927
    -4.5470  -4.3304  -4.1188  -3.7406  -2.8882  -2.8400  -2.8171  -2.7228
    -2.6926  -2.6073  -2.5493  -2.5080  -2.4528  -2.3922  -2.3388  -2.2894

          k = 0.2247 0.3027 0.3111 (  3106 PWs)   bands (ev):

   -20.9681 -20.7489 -20.6564 -20.6280 -20.5584 -20.4869 -20.3151 -20.2332
   -20.1910 -20.0882 -20.0245 -19.8854  -8.1406  -8.0463  -8.0155  -7.8803
    -7.8413  -7.7239  -7.4855  -7.2840  -7.1401  -7.0887  -6.9460  -6.9038
    -6.6326  -6.1513  -6.0814  -5.8502  -5.5721  -5.2593  -5.1399  -4.7460
    -4.5739  -4.2838  -4.1462  -3.7242  -2.9825  -2.8645  -2.8408  -2.7571
    -2.6698  -2.6400  -2.5641  -2.5273  -2.4601  -2.3625  -2.3494  -2.2959

          k = 0.1498 0.2595 0.4666 (  3103 PWs)   bands (ev):

   -20.9334 -20.7308 -20.6880 -20.6283 -20.5688 -20.5199 -20.2914 -20.2611
   -20.1619 -20.0724 -20.0253 -19.9086  -8.1262  -8.0249  -7.9791  -7.9127
    -7.8429  -7.7307  -7.4207  -7.2504  -7.1596  -7.1063  -6.9153  -6.8767
    -6.5509  -6.2297  -6.0552  -5.8606  -5.4691  -5.3906  -5.1029  -4.8932
    -4.5822  -4.2310  -4.1190  -3.7743  -3.0569  -2.9074  -2.8085  -2.7752
    -2.6792  -2.6633  -2.5719  -2.5302  -2.4828  -2.3593  -2.3447  -2.2891

          k = 0.3745-0.2162-1.0887 (  3103 PWs)   bands (ev):

   -20.9034 -20.8753 -20.6961 -20.6093 -20.4833 -20.4720 -20.3053 -20.2872
   -20.1228 -20.1191 -19.9678 -19.9362  -8.1438  -8.1034  -8.0224  -7.8904
    -7.7936  -7.7266  -7.4983  -7.3701  -7.1282  -7.1030  -6.9205  -6.8745
    -6.5169  -6.4701  -6.0557  -5.8525  -5.5781  -5.2325  -5.0053  -4.6389
    -4.4774  -4.4140  -4.0518  -3.8174  -2.8853  -2.8618  -2.8144  -2.7169
    -2.6854  -2.6344  -2.5181  -2.5122  -2.4533  -2.4260  -2.3207  -2.2858

          k = 0.2996-0.2595-0.9332 (  3092 PWs)   bands (ev):

   -20.8997 -20.8199 -20.6655 -20.6581 -20.5537 -20.4850 -20.3142 -20.2184
   -20.1541 -20.0773 -20.0013 -19.9318  -8.1535  -8.0538  -8.0011  -7.8905
    -7.8207  -7.7189  -7.4789  -7.3029  -7.1730  -7.0318  -6.9238  -6.8854
    -6.5106  -6.3296  -6.0669  -5.8626  -5.6367  -5.2414  -5.1229  -4.6283
    -4.4406  -4.3511  -4.1486  -3.7832  -2.9649  -2.8861  -2.8410  -2.7495
    -2.6735  -2.6455  -2.5409  -2.5102  -2.4664  -2.3775  -2.3326  -2.2606

          k = 0.2247-0.3027-0.7776 (  3090 PWs)   bands (ev):

   -20.8779 -20.7569 -20.7330 -20.6278 -20.5999 -20.5075 -20.3035 -20.2155
   -20.1432 -20.0631 -20.0103 -19.9454  -8.1492  -8.0111  -7.9612  -7.9182
    -7.8534  -7.7149  -7.4318  -7.2292  -7.2124  -7.0325  -6.9142  -6.8715
    -6.4684  -6.2012  -6.1737  -5.8472  -5.6061  -5.3690  -5.0976  -4.7383
    -4.4246  -4.3133  -4.1767  -3.7780  -3.0522  -2.8873  -2.8586  -2.7718
    -2.6998  -2.6482  -2.5387  -2.5260  -2.4931  -2.3559  -2.3284  -2.2613

          k = 0.1498-0.3460-0.6221 (  3098 PWs)   bands (ev):

   -20.8297 -20.8291 -20.6818 -20.6683 -20.5474 -20.5441 -20.2774 -20.2684
   -20.0976 -20.0910 -19.9874 -19.9689  -8.1354  -8.0101  -7.9531  -7.9288
    -7.8526  -7.7323  -7.3761  -7.2689  -7.1803  -7.0926  -6.8778  -6.8710
    -6.4479  -6.3278  -6.0489  -5.8951  -5.4956  -5.4201  -5.0506  -4.9209
    -4.4233  -4.3377  -4.1010  -3.8104  -3.0874  -2.9080  -2.8213  -2.7824
    -2.6978  -2.6659  -2.5629  -2.5282  -2.4955  -2.3671  -2.3328  -2.2659

          k = 0.2996-0.1730-0.7776 (  3093 PWs)   bands (ev):

   -20.8144 -20.8093 -20.7509 -20.6235 -20.6173 -20.5023 -20.3099 -20.1908
   -20.1384 -20.0574 -20.0084 -19.9642  -8.1620  -8.0213  -7.9433  -7.9239
    -7.8599  -7.7105  -7.4177  -7.2791  -7.2188  -6.9659  -6.9392  -6.8745
    -6.3777  -6.3413  -6.1363  -5.7979  -5.7337  -5.3454  -5.0662  -4.6992
    -4.3790  -4.3518  -4.1768  -3.7993  -3.0433  -2.9190  -2.8541  -2.7513
    -2.7314  -2.6323  -2.5449  -2.5181  -2.4858  -2.3717  -2.3265  -2.2519

          k = 0.2247-0.2162-0.6221 (  3105 PWs)   bands (ev):

   -20.8506 -20.7773 -20.7216 -20.6568 -20.5732 -20.5313 -20.2939 -20.2326
   -20.1298 -20.0670 -20.0033 -19.9567  -8.1537  -7.9938  -7.9770  -7.9155
    -7.8729  -7.7154  -7.3865  -7.2884  -7.1775  -7.0510  -6.9155  -6.8752
    -6.4327  -6.2567  -6.1437  -5.8404  -5.5660  -5.4753  -5.0303  -4.8126
    -4.5285  -4.2399  -4.1540  -3.7987  -3.0865  -2.9394  -2.8402  -2.7795
    -2.7247  -2.6489  -2.5546  -2.5306  -2.4963  -2.3653  -2.3355  -2.2598

          k = 0.2247-0.1297-0.4666 (  3104 PWs)   bands (ev):

   -20.9452 -20.7088 -20.6892 -20.6227 -20.5582 -20.5381 -20.2871 -20.2463
   -20.2067 -20.0496 -20.0413 -19.8967  -8.1274  -8.0465  -7.9683  -7.9056
    -7.8600  -7.7140  -7.3969  -7.3040  -7.1421  -7.0827  -6.9503  -6.8828
    -6.5590  -6.1743  -6.0796  -5.8215  -5.5077  -5.4440  -4.9699  -4.9233
    -4.6955  -4.1700  -4.1237  -3.7615  -3.0486  -2.9366  -2.7972  -2.7850
    -2.6909  -2.6392  -2.5718  -2.5297  -2.4651  -2.3724  -2.3455  -2.2848

          k = 0.0000 0.0000 0.9332 (  3084 PWs)   bands (ev):

   -20.8256 -20.8256 -20.7475 -20.7033 -20.5275 -20.5275 -20.2114 -20.2114
   -20.0913 -20.0548 -20.0254 -20.0254  -8.0896  -8.0896  -7.9339  -7.8454
    -7.8454  -7.8423  -7.4171  -7.3096  -7.3096  -6.8527  -6.8527  -6.8009
    -6.4352  -6.4239  -6.4239  -5.7727  -5.4547  -5.4547  -4.8156  -4.6229
    -4.6229  -4.1697  -4.1697  -4.0019  -2.8863  -2.8863  -2.7663  -2.6953
    -2.6308  -2.6308  -2.5843  -2.5196  -2.5196  -2.3972  -2.3972  -2.2233

          k =-0.0749-0.0432 1.0887 (  3090 PWs)   bands (ev):

   -20.8921 -20.8219 -20.7782 -20.6268 -20.4935 -20.4844 -20.2628 -20.2451
   -20.1330 -20.0395 -20.0306 -19.9657  -8.1152  -8.0984  -7.9688  -7.8685
    -7.8395  -7.7942  -7.4645  -7.3456  -7.2871  -6.8865  -6.8841  -6.8392
    -6.5599  -6.3880  -6.3493  -5.7912  -5.4674  -5.3473  -4.7546  -4.6722
    -4.6139  -4.2102  -4.1533  -3.9254  -2.8460  -2.8291  -2.7565  -2.7215
    -2.6448  -2.6154  -2.5426  -2.5171  -2.5004  -2.4195  -2.3817  -2.2411

          k = 0.4494 0.2595 0.0000 (  3100 PWs)   bands (ev):

   -20.9512 -20.7861 -20.7797 -20.5893 -20.4559 -20.4463 -20.3123 -20.3056
   -20.1524 -20.0596 -20.0273 -19.9082  -8.1370  -8.1025  -8.0203  -7.8678
    -7.8207  -7.7471  -7.5001  -7.3627  -7.2268  -6.9763  -6.9306  -6.8758
    -6.6597  -6.2970  -6.2107  -5.7874  -5.5306  -5.2572  -4.8202  -4.7744
    -4.5653  -4.2694  -4.1342  -3.8047  -2.8333  -2.8292  -2.7823  -2.7368
    -2.6823  -2.6075  -2.5273  -2.5056  -2.4676  -2.4180  -2.3621  -2.2711

          k = 0.3745 0.2162 0.1555 (  3106 PWs)   bands (ev):

   -20.9821 -20.7625 -20.7213 -20.6012 -20.4667 -20.4470 -20.3296 -20.3212
   -20.1471 -20.0999 -20.0229 -19.8765  -8.1416  -8.0923  -8.0399  -7.8664
    -7.8128  -7.7161  -7.5054  -7.3518  -7.1534  -7.0634  -6.9697  -6.9093
    -6.6813  -6.2067  -6.0479  -5.8178  -5.6307  -5.2080  -4.9859  -4.7889
    -4.5495  -4.3057  -4.1188  -3.7228  -2.8831  -2.8675  -2.8230  -2.7386
    -2.6912  -2.6385  -2.5179  -2.4909  -2.4455  -2.4087  -2.3369  -2.3042

          k = 0.2996 0.1730 0.3111 (  3112 PWs)   bands (ev):

   -20.9806 -20.7337 -20.6459 -20.6333 -20.5470 -20.4895 -20.3019 -20.2711
   -20.2009 -20.0808 -20.0288 -19.8728  -8.1365  -8.0834  -7.9967  -7.8690
    -7.8632  -7.7072  -7.4581  -7.3214  -7.1278  -7.0678  -7.0045  -6.9025
    -6.6416  -6.1437  -5.9643  -5.8761  -5.6522  -5.3049  -5.0105  -4.8127
    -4.6615  -4.2509  -4.1210  -3.7097  -2.9814  -2.9098  -2.8267  -2.7769
    -2.6703  -2.6411  -2.5477  -2.5171  -2.4391  -2.3938  -2.3360  -2.3122

          k =-0.0749 0.0432 1.2442 (  3115 PWs)   bands (ev):

   -20.8851 -20.8598 -20.7907 -20.5954 -20.4491 -20.4383 -20.3161 -20.3100
   -20.1427 -20.0448 -19.9852 -19.9619  -8.1259  -8.1194  -8.0347  -7.8647
    -7.8274  -7.7514  -7.5015  -7.3550  -7.2779  -6.9662  -6.9129  -6.8920
    -6.5126  -6.4323  -6.2736  -5.8058  -5.4562  -5.3372  -4.7973  -4.7216
    -4.5851  -4.2445  -4.1000  -3.8924  -2.8507  -2.8354  -2.7892  -2.7423
    -2.6727  -2.6414  -2.5235  -2.5186  -2.4647  -2.4179  -2.3742  -2.2735

          k = 0.4494 0.3460 0.1555 (  3113 PWs)   bands (ev):

   -20.9126 -20.8296 -20.7589 -20.6102 -20.4477 -20.4265 -20.3551 -20.3235
   -20.1163 -20.0781 -19.9961 -19.9262  -8.1386  -8.0894  -8.0799  -7.8557
    -7.8160  -7.7089  -7.5218  -7.3227  -7.1953  -7.0664  -6.9287  -6.9280
    -6.5406  -6.3390  -6.1481  -5.8335  -5.5563  -5.3151  -4.9251  -4.7361
    -4.4762  -4.2977  -4.1158  -3.8036  -2.8843  -2.8713  -2.8447  -2.7320
    -2.7032  -2.6624  -2.5077  -2.4866  -2.4508  -2.4013  -2.3550  -2.2868

          k = 0.3745 0.3027 0.3111 (  3101 PWs)   bands (ev):

   -20.9212 -20.7797 -20.6936 -20.6544 -20.5383 -20.4691 -20.3270 -20.2587
   -20.1443 -20.0689 -20.0148 -19.9107  -8.1601  -8.0639  -8.0285  -7.8648
    -7.8340  -7.6931  -7.4981  -7.2687  -7.1547  -7.0794  -6.9637  -6.9078
    -6.5283  -6.2161  -6.0072  -5.9033  -5.6830  -5.3611  -4.9878  -4.7160
    -4.4683  -4.3043  -4.1586  -3.7433  -2.9753  -2.9006  -2.8696  -2.7777
    -2.7044  -2.6506  -2.5181  -2.4861  -2.4449  -2.3825  -2.3380  -2.2812

          k = 0.2996 0.2595 0.4666 (  3099 PWs)   bands (ev):

   -20.8994 -20.7308 -20.7094 -20.6340 -20.6028 -20.5250 -20.2819 -20.2314
   -20.1803 -20.0462 -20.0223 -19.9232  -8.1693  -8.0217  -7.9671  -7.9045
    -7.8711  -7.6927  -7.4347  -7.2595  -7.1498  -7.0617  -6.9656  -6.8895
    -6.4729  -6.1387  -6.0722  -5.9067  -5.6505  -5.4809  -4.9554  -4.7848
    -4.5283  -4.2339  -4.1824  -3.7436  -3.0644  -2.9221  -2.8658  -2.8031
    -2.7273  -2.6200  -2.5480  -2.5114  -2.4637  -2.3580  -2.3393  -2.2693

          k = 0.4494-0.2595-0.9332 (  3098 PWs)   bands (ev):

   -20.8506 -20.8485 -20.7128 -20.6588 -20.5343 -20.4587 -20.3392 -20.2562
   -20.1149 -20.0623 -20.0115 -19.9318  -8.1693  -8.0647  -8.0301  -7.8687
    -7.8276  -7.6858  -7.4965  -7.2749  -7.1540  -7.0890  -6.9433  -6.9127
    -6.3936  -6.3545  -6.0373  -5.8826  -5.6976  -5.3860  -4.9658  -4.6756
    -4.3877  -4.3441  -4.1612  -3.7720  -2.9662  -2.9140  -2.8743  -2.7696
    -2.7244  -2.6533  -2.4920  -2.4743  -2.4441  -2.3971  -2.3322  -2.2654

          k = 0.3745-0.3027-0.7776 (  3099 PWs)   bands (ev):

   -20.8401 -20.7757 -20.7243 -20.6473 -20.6237 -20.5157 -20.3003 -20.1898
   -20.1627 -20.0556 -20.0095 -19.9428  -8.1900  -8.0059  -7.9785  -7.9061
    -7.8657  -7.6794  -7.4534  -7.2375  -7.1864  -7.0125  -6.9752  -6.9077
    -6.3628  -6.2094  -6.0610  -5.8974  -5.7690  -5.5129  -4.9438  -4.6741
    -4.4246  -4.3002  -4.2286  -3.7455  -3.0700  -2.9188  -2.9119  -2.8049
    -2.7607  -2.6118  -2.5268  -2.4835  -2.4705  -2.3596  -2.3394  -2.2536

          k = 0.2996-0.3460-0.6221 (  3090 PWs)   bands (ev):

   -20.8056 -20.8014 -20.7011 -20.6910 -20.5654 -20.5634 -20.2609 -20.2536
   -20.1038 -20.0955 -19.9821 -19.9636  -8.1776  -7.9746  -7.9407  -7.9206
    -7.8929  -7.6886  -7.3971  -7.2898  -7.1227  -7.0786  -6.9130  -6.9053
    -6.3526  -6.2323  -6.0612  -5.9260  -5.6249  -5.5898  -4.8848  -4.8156
    -4.3932  -4.3511  -4.1677  -3.7527  -3.1019  -2.9222  -2.8771  -2.8040
    -2.7580  -2.6118  -2.5421  -2.5009  -2.4795  -2.3528  -2.3230  -2.2520

          k = 0.3745-0.2162-0.6221 (  3107 PWs)   bands (ev):

   -20.8138 -20.7648 -20.7310 -20.6812 -20.5876 -20.5641 -20.2660 -20.2285
   -20.1238 -20.0897 -19.9832 -19.9600  -8.1947  -7.9659  -7.9576  -7.9239
    -7.9154  -7.6878  -7.4087  -7.2953  -7.1271  -7.0499  -6.9457  -6.9101
    -6.3218  -6.1912  -6.1072  -5.9094  -5.6973  -5.6291  -4.8644  -4.7704
    -4.4464  -4.3163  -4.1913  -3.7476  -3.1126  -2.9418  -2.8933  -2.8130
    -2.7887  -2.6029  -2.5515  -2.4960  -2.4797  -2.3556  -2.3353  -2.2555

          k =-0.0000 0.0000 1.3997 (  3105 PWs)   bands (ev):

   -20.8396 -20.8396 -20.8379 -20.6127 -20.4043 -20.4043 -20.3696 -20.3696
   -20.1084 -20.0225 -20.0225 -19.9441  -8.1230  -8.0972  -8.0972  -7.8295
    -7.8295  -7.6922  -7.5167  -7.2693  -7.2693  -7.0484  -6.9318  -6.9318
    -6.4479  -6.2951  -6.2951  -5.8197  -5.4443  -5.4443  -4.8142  -4.8142
    -4.4599  -4.1808  -4.1808  -3.8296  -2.8692  -2.8692  -2.8666  -2.7064
    -2.7064  -2.6957  -2.4890  -2.4890  -2.4245  -2.3841  -2.3841  -2.2811

          k = 0.5243 0.3027 0.3111 (  3099 PWs)   bands (ev):

   -20.8596 -20.8010 -20.7643 -20.6580 -20.5093 -20.4698 -20.3249 -20.2889
   -20.0870 -20.0573 -20.0308 -19.9291  -8.1748  -8.0620  -8.0435  -7.8525
    -7.8322  -7.6744  -7.5064  -7.2292  -7.1595  -7.1323  -6.9491  -6.9256
    -6.3929  -6.2518  -6.1255  -5.8627  -5.6587  -5.4903  -4.8691  -4.7530
    -4.3506  -4.3113  -4.1940  -3.7600  -2.9692  -2.9182  -2.8954  -2.7681
    -2.7453  -2.6472  -2.4753  -2.4470  -2.4429  -2.3966  -2.3510  -2.2734

          k = 0.4494 0.2595 0.4666 (  3091 PWs)   bands (ev):

   -20.8498 -20.7509 -20.7114 -20.6672 -20.6208 -20.5351 -20.2744 -20.2082
   -20.1666 -20.0559 -20.0103 -19.9334  -8.1988  -8.0125  -7.9738  -7.8887
    -7.8727  -7.6707  -7.4465  -7.2505  -7.1363  -7.0183  -7.0068  -6.9128
    -6.3545  -6.1496  -5.9680  -5.9544  -5.8252  -5.5893  -4.8348  -4.7081
    -4.4777  -4.2467  -4.2229  -3.7271  -3.0747  -2.9377  -2.9014  -2.8162
    -2.7775  -2.5968  -2.5203  -2.4604  -2.4501  -2.3766  -2.3357  -2.2508

          k = 0.5243-0.3027-0.7776 (  3090 PWs)   bands (ev):

   -20.8101 -20.7686 -20.7149 -20.7033 -20.6027 -20.5514 -20.2667 -20.2153
   -20.1318 -20.0805 -20.0029 -19.9360  -8.2118  -7.9998  -7.9852  -7.8837
    -7.8681  -7.6599  -7.4561  -7.2382  -7.1302  -7.0512  -6.9726  -6.9369
    -6.2579  -6.1771  -6.0077  -5.9231  -5.8429  -5.6801  -4.7967  -4.6860
    -4.4115  -4.3172  -4.2289  -3.7174  -3.0778  -2.9362  -2.9239  -2.8164
    -2.7991  -2.5971  -2.4999  -2.4528  -2.4407  -2.3663  -2.3479  -2.2452

          k = 0.4494-0.3460-0.6221 (  3082 PWs)   bands (ev):

   -20.7802 -20.7697 -20.7014 -20.6974 -20.6102 -20.6098 -20.2218 -20.2180
   -20.1265 -20.1219 -19.9720 -19.9550  -8.2146  -7.9448  -7.9353  -7.9221
    -7.9149  -7.6601  -7.4221  -7.2884  -7.0589  -7.0502  -6.9555  -6.9516
    -6.2253  -6.0994  -6.0489  -5.9507  -5.7814  -5.7749  -4.7410  -4.7148
    -4.4136  -4.3872  -4.1897  -3.7121  -3.1178  -2.9348  -2.9206  -2.8227
    -2.8120  -2.5648  -2.5399  -2.4616  -2.4506  -2.3471  -2.3403  -2.2337

          k = 0.0000 0.0000-1.8663 (  3084 PWs)   bands (ev):

   -20.7725 -20.7585 -20.6669 -20.6669 -20.6615 -20.6615 -20.1867 -20.1867
   -20.1521 -20.1521 -19.9669 -19.9520  -8.2287  -7.9455  -7.9455  -7.9151
    -7.9151  -7.6571  -7.4457  -7.2866  -7.0116  -7.0116  -6.9882  -6.9882
    -6.1843  -5.9719  -5.9520  -5.9520  -5.9420  -5.9420  -4.6747  -4.6747
    -4.4308  -4.4308  -4.1738  -3.6907  -3.1311  -2.9337  -2.9337  -2.8335
    -2.8335  -2.5442  -2.5437  -2.4383  -2.4383  -2.3511  -2.3511  -2.2301

          k =-0.1498 0.0000-0.4666 (  3108 PWs)   bands (ev):

   -20.9696 -20.7058 -20.6676 -20.6086 -20.5515 -20.5305 -20.2972 -20.2595
   -20.2085 -20.0694 -20.0444 -19.8796  -8.0859  -8.0669  -7.9938  -7.9107
    -7.8077  -7.7457  -7.3998  -7.2839  -7.2094  -7.0510  -6.9338  -6.8944
    -6.6089  -6.2075  -6.0882  -5.7332  -5.4571  -5.3247  -5.1009  -4.9309
    -4.8166  -4.1519  -4.0944  -3.7748  -3.0296  -2.9472  -2.7673  -2.7484
    -2.6705  -2.6479  -2.6077  -2.5168  -2.4757  -2.3796  -2.3676  -2.2949

          k =-0.2247 0.0432-0.6221 (  3091 PWs)   bands (ev):

   -20.8708 -20.7927 -20.6952 -20.6365 -20.5715 -20.5327 -20.2834 -20.2402
   -20.1342 -20.0686 -20.0117 -19.9518  -8.1049  -8.0256  -7.9767  -7.9096
    -7.8249  -7.7478  -7.3779  -7.2561  -7.2217  -7.0465  -6.8785  -6.8465
    -6.4875  -6.3244  -6.1270  -5.7980  -5.4261  -5.4046  -5.1118  -4.8921
    -4.5599  -4.2295  -4.0866  -3.8448  -3.0619  -2.9192  -2.7809  -2.7482
    -2.6992  -2.6666  -2.5829  -2.5307  -2.4984  -2.3729  -2.3440  -2.2592

          k = 0.2996-0.2595 0.4666 (  3088 PWs)   bands (ev):

   -20.8992 -20.7641 -20.7058 -20.6173 -20.6014 -20.5084 -20.2934 -20.2258
   -20.1216 -20.0921 -20.0138 -19.9412  -8.1119  -8.0385  -7.9455  -7.9266
    -7.8256  -7.7550  -7.4084  -7.2504  -7.2034  -7.0522  -6.8777  -6.8484
    -6.5345  -6.2964  -6.1235  -5.8209  -5.4863  -5.3205  -5.1388  -4.8449
    -4.4612  -4.3023  -4.1119  -3.8196  -3.0423  -2.8739  -2.8006  -2.7377
    -2.7059  -2.6533  -2.5625  -2.5260  -2.5093  -2.3686  -2.3422  -2.2569

          k = 0.2247-0.2162 0.3111 (  3101 PWs)   bands (ev):

   -20.9923 -20.7188 -20.6512 -20.6104 -20.5729 -20.4814 -20.3161 -20.2420
   -20.1806 -20.1091 -20.0395 -19.8685  -8.1236  -8.0536  -7.9787  -7.8888
    -7.8331  -7.7590  -7.4634  -7.2705  -7.1671  -7.0972  -6.9103  -6.8961
    -6.6880  -6.1768  -6.0705  -5.7932  -5.5013  -5.2344  -5.1707  -4.8206
    -4.6491  -4.2381  -4.1444  -3.7203  -2.9754  -2.8508  -2.8004  -2.7233
    -2.6870  -2.6172  -2.5564  -2.5396  -2.4716  -2.3863  -2.3590  -2.2901

          k = 0.1498-0.1730 0.1555 (  3120 PWs)   bands (ev):

   -21.0585 -20.6926 -20.6514 -20.5387 -20.5167 -20.4501 -20.3488 -20.2928
   -20.2555 -20.1005 -20.0634 -19.8151  -8.1640  -8.0418  -7.9880  -7.8680
    -7.8642  -7.7804  -7.4860  -7.2970  -7.1959  -7.0895  -6.9727  -6.9291
    -6.8108  -6.0693  -6.0187  -5.7186  -5.5117  -5.2069  -5.1372  -4.9088
    -4.7691  -4.2306  -4.1744  -3.6114  -2.8953  -2.8368  -2.7785  -2.6910
    -2.6666  -2.6273  -2.5355  -2.5157  -2.4492  -2.4261  -2.3724  -2.3375

          k =-0.2247-0.0432-0.7776 (  3097 PWs)   bands (ev):

   -20.8392 -20.7814 -20.7642 -20.6301 -20.6006 -20.5165 -20.2794 -20.1845
   -20.1402 -20.0597 -20.0074 -19.9853  -8.1291  -8.0355  -7.9446  -7.9173
    -7.8451  -7.7579  -7.4065  -7.2794  -7.2468  -6.9585  -6.8887  -6.8416
    -6.4697  -6.3281  -6.2467  -5.7560  -5.5993  -5.3277  -5.0918  -4.7348
    -4.4880  -4.2563  -4.1658  -3.8647  -3.0203  -2.9107  -2.8006  -2.7351
    -2.6999  -2.6537  -2.5753  -2.5326  -2.5135  -2.3810  -2.3468  -2.2499

          k = 0.2996-0.3460 0.3111 (  3097 PWs)   bands (ev):

   -20.9328 -20.7767 -20.6784 -20.6443 -20.5637 -20.4995 -20.2875 -20.1995
   -20.1573 -20.1000 -20.0218 -19.9199  -8.1349  -8.0575  -7.9644  -7.9048
    -7.8280  -7.7589  -7.4643  -7.3109  -7.1919  -7.0029  -6.8903  -6.8683
    -6.6136  -6.2621  -6.1892  -5.7947  -5.5527  -5.2709  -5.1050  -4.6694
    -4.5141  -4.2939  -4.1786  -3.7955  -2.9633  -2.8560  -2.8053  -2.7338
    -2.6708  -2.6185  -2.5644  -2.5395  -2.4893  -2.3894  -2.3474  -2.2603

          k = 0.2247-0.3027 0.1555 (  3101 PWs)   bands (ev):

   -21.0067 -20.7576 -20.6669 -20.5846 -20.5251 -20.4666 -20.3152 -20.2522
   -20.1933 -20.1103 -20.0379 -19.8597  -8.1449  -8.0679  -7.9908  -7.8917
    -7.8105  -7.7664  -7.5010  -7.3427  -7.1386  -7.0724  -6.9234  -6.8915
    -6.7604  -6.1824  -6.0817  -5.7840  -5.5470  -5.2333  -5.0467  -4.7328
    -4.6281  -4.2887  -4.1592  -3.6977  -2.8905  -2.8077  -2.8060  -2.7152
    -2.6650  -2.6178  -2.5469  -2.5210  -2.4550  -2.4138  -2.3459  -2.2960

          k = 0.2996-0.4325 0.1555 (  3095 PWs)   bands (ev):

   -20.9361 -20.8434 -20.6752 -20.6102 -20.5137 -20.4867 -20.2792 -20.2504
   -20.1467 -20.1247 -19.9871 -19.9203  -8.1453  -8.0877  -7.9707  -7.9145
    -7.7952  -7.7634  -7.4825  -7.3792  -7.1652  -7.0317  -6.8987  -6.8519
    -6.6227  -6.4030  -6.0950  -5.8222  -5.5297  -5.2639  -4.9798  -4.5813
    -4.5631  -4.3976  -4.0793  -3.8100  -2.8738  -2.8407  -2.7840  -2.7295
    -2.6495  -2.5948  -2.5707  -2.5255  -2.4595  -2.4290  -2.3367  -2.2685

          k =-0.1498 0.0000-0.9332 (  3091 PWs)   bands (ev):

   -20.8799 -20.8000 -20.7085 -20.6925 -20.5473 -20.5126 -20.2472 -20.1877
   -20.1176 -20.0893 -20.0237 -19.9733  -8.1140  -8.0729  -7.9306  -7.8952
    -7.8313  -7.8041  -7.4335  -7.3369  -7.2582  -6.9008  -6.8636  -6.8181
    -6.5537  -6.3753  -6.2996  -5.7690  -5.5363  -5.3561  -4.9173  -4.6481
    -4.5416  -4.2396  -4.1834  -3.9154  -2.9283  -2.8620  -2.7580  -2.7378
    -2.6474  -2.6158  -2.5871  -2.5425  -2.5032  -2.4097  -2.3701  -2.2350

          k = 0.3745-0.3027 0.1555 (  3096 PWs)   bands (ev):

   -20.9582 -20.7886 -20.7171 -20.6116 -20.5117 -20.4797 -20.2810 -20.2420
   -20.1514 -20.0949 -20.0341 -19.9050  -8.1337  -8.0850  -7.9617  -7.8989
    -7.8203  -7.7826  -7.4798  -7.3652  -7.2094  -6.9635  -6.9019  -6.8417
    -6.7080  -6.2902  -6.2048  -5.7678  -5.5464  -5.2786  -4.9051  -4.6766
    -4.5904  -4.2814  -4.1659  -3.8014  -2.8703  -2.8275  -2.7672  -2.7387
    -2.6430  -2.6075  -2.5523  -2.5183  -2.4719  -2.4414  -2.3618  -2.2558

          k = 0.2996-0.2595-0.0000 (  3104 PWs)   bands (ev):

   -21.0115 -20.7575 -20.7044 -20.5713 -20.4905 -20.4425 -20.3227 -20.2920
   -20.1883 -20.0928 -20.0457 -19.8563  -8.1568  -8.0908  -7.9840  -7.9026
    -7.8001  -7.7568  -7.5035  -7.3719  -7.1521  -7.0433  -6.9550  -6.8635
    -6.8015  -6.1999  -6.0696  -5.7507  -5.6156  -5.1849  -4.9259  -4.8319
    -4.6157  -4.2983  -4.1466  -3.6938  -2.8404  -2.8212  -2.7931  -2.7217
    -2.6664  -2.6170  -2.5309  -2.4859  -2.4611  -2.4518  -2.3423  -2.3036

          k = 0.2247-0.2162-0.1555 (  3106 PWs)   bands (ev):

   -21.0317 -20.7262 -20.6603 -20.5773 -20.5011 -20.4517 -20.3357 -20.2973
   -20.2102 -20.1057 -20.0452 -19.8362  -8.1490  -8.0777  -7.9864  -7.8938
    -7.8274  -7.7442  -7.4706  -7.3664  -7.1365  -7.0547  -7.0139  -6.8996
    -6.7766  -6.1458  -5.9470  -5.7608  -5.6581  -5.1186  -5.0798  -4.8504
    -4.7198  -4.2588  -4.1278  -3.6503  -2.8833  -2.8589  -2.7883  -2.7242
    -2.6522  -2.6276  -2.5227  -2.5147  -2.4380  -2.4141  -2.3515  -2.3238

          k = 0.1498-0.1730-0.3111 (  3114 PWs)   bands (ev):

   -21.0180 -20.7032 -20.6363 -20.5765 -20.5573 -20.4895 -20.3170 -20.2643
   -20.2476 -20.0902 -20.0448 -19.8445  -8.1208  -8.0818  -7.9617  -7.9137
    -7.8432  -7.7345  -7.4219  -7.3390  -7.1638  -7.0840  -6.9796  -6.9070
    -6.7090  -6.1439  -5.9812  -5.7834  -5.5280  -5.3065  -5.0058  -4.8971
    -4.8470  -4.2007  -4.1138  -3.6817  -2.9698  -2.9038  -2.7860  -2.7498
    -2.6522  -2.6260  -2.5620  -2.5363  -2.4442  -2.4051  -2.3607  -2.3090

          k = 0.3745-0.3892-0.0000 (  3098 PWs)   bands (ev):

   -20.9405 -20.8464 -20.7167 -20.5869 -20.4884 -20.4442 -20.3062 -20.2841
   -20.1527 -20.1005 -19.9881 -19.9172  -8.1449  -8.1100  -7.9927  -7.8963
    -7.7952  -7.7512  -7.4883  -7.3963  -7.1825  -7.0347  -6.9144  -6.8564
    -6.6284  -6.4006  -6.1224  -5.7997  -5.5288  -5.2575  -4.8739  -4.7020
    -4.5400  -4.3739  -4.0573  -3.8152  -2.8517  -2.8057  -2.7930  -2.7326
    -2.6538  -2.6197  -2.5233  -2.4980  -2.4774  -2.4423  -2.3300  -2.2802

          k = 0.2996-0.3460-0.1555 (  3099 PWs)   bands (ev):

   -20.9697 -20.8008 -20.6877 -20.5987 -20.5013 -20.4555 -20.3161 -20.2860
   -20.1535 -20.1071 -20.0119 -19.8871  -8.1303  -8.1124  -8.0054  -7.8950
    -7.8035  -7.7289  -7.4748  -7.3864  -7.1289  -7.0674  -6.9514  -6.8743
    -6.6721  -6.2961  -6.0073  -5.8043  -5.6592  -5.1553  -5.0261  -4.7172
    -4.5731  -4.3374  -4.0765  -3.7561  -2.8866  -2.8620  -2.8072  -2.7147
    -2.6669  -2.6479  -2.5172  -2.4939  -2.4450  -2.4414  -2.3201  -2.2975

          k = 0.2247-0.3027-0.3111 (  3106 PWs)   bands (ev):

   -20.9685 -20.7496 -20.6514 -20.6243 -20.5698 -20.4837 -20.3138 -20.2291
   -20.1970 -20.0844 -20.0295 -19.8846  -8.1229  -8.1020  -7.9597  -7.8991
    -7.8489  -7.7229  -7.4109  -7.3670  -7.1571  -7.0264  -6.9906  -6.8785
    -6.6409  -6.2263  -5.9512  -5.8244  -5.7221  -5.2274  -5.0333  -4.7781
    -4.6614  -4.2596  -4.0996  -3.7469  -2.9681  -2.9111  -2.8156  -2.7513
    -2.6786  -2.6318  -2.5515  -2.5162  -2.4452  -2.4125  -2.3439  -2.2772

          k = 0.1498-0.2595-0.4666 (  3103 PWs)   bands (ev):

   -20.9342 -20.7349 -20.6727 -20.6411 -20.5688 -20.5179 -20.2961 -20.2532
   -20.1663 -20.0689 -20.0284 -19.9080  -8.1201  -8.0607  -7.9439  -7.9152
    -7.8545  -7.7270  -7.3768  -7.3060  -7.1617  -7.0946  -6.9206  -6.8685
    -6.5644  -6.2393  -6.0083  -5.8694  -5.5466  -5.3532  -4.9930  -4.9487
    -4.6318  -4.2187  -4.0945  -3.7850  -3.0534  -2.9232  -2.7992  -2.7796
    -2.6876  -2.6495  -2.5552  -2.5442  -2.4758  -2.3814  -2.3445  -2.2705

          k = 0.2996 0.2595 0.9332 (  3092 PWs)   bands (ev):

   -20.9001 -20.8198 -20.6676 -20.6542 -20.5581 -20.4832 -20.3125 -20.2199
   -20.1529 -20.0747 -20.0062 -19.9306  -8.1455  -8.0806  -7.9820  -7.8976
    -7.8281  -7.7125  -7.4421  -7.3428  -7.1765  -7.0002  -6.9441  -6.8723
    -6.5192  -6.3581  -6.0207  -5.8331  -5.7209  -5.2082  -5.0849  -4.6517
    -4.4920  -4.3350  -4.0986  -3.8027  -2.9559  -2.9088  -2.8320  -2.7344
    -2.6925  -2.6362  -2.5385  -2.5077  -2.4529  -2.4042  -2.3295  -2.2640

          k = 0.2247 0.3027 0.7776 (  3090 PWs)   bands (ev):

   -20.8780 -20.7619 -20.7238 -20.6294 -20.6045 -20.5056 -20.3029 -20.2164
   -20.1416 -20.0635 -20.0152 -19.9425  -8.1459  -8.0360  -7.9334  -7.9044
    -7.8770  -7.7171  -7.3720  -7.3182  -7.1891  -7.0153  -6.9187  -6.8724
    -6.4794  -6.2904  -6.0349  -5.8572  -5.6927  -5.3325  -4.9983  -4.8238
    -4.4682  -4.3014  -4.1162  -3.7977  -3.0409  -2.9229  -2.8346  -2.7643
    -2.7127  -2.6307  -2.5577  -2.5211  -2.4699  -2.3848  -2.3245  -2.2525

          k = 0.2247 0.2162 0.6221 (  3105 PWs)   bands (ev):

   -20.8495 -20.7763 -20.7231 -20.6556 -20.5755 -20.5302 -20.2924 -20.2353
   -20.1271 -20.0699 -20.0012 -19.9575  -8.1551  -7.9954  -7.9745  -7.9060
    -7.8834  -7.7176  -7.3832  -7.2910  -7.1870  -7.0404  -6.9180  -6.8721
    -6.4216  -6.2989  -6.0965  -5.8508  -5.6020  -5.4453  -4.9758  -4.8851
    -4.4886  -4.2730  -4.1374  -3.7971  -3.0862  -2.9375  -2.8403  -2.7815
    -2.7279  -2.6432  -2.5741  -2.5187  -2.4879  -2.3726  -2.3354  -2.2658

          k = 0.4494-0.3460-0.1555 (  3113 PWs)   bands (ev):

   -20.9131 -20.8295 -20.7590 -20.6099 -20.4527 -20.4219 -20.3507 -20.3272
   -20.1156 -20.0779 -19.9973 -19.9249  -8.1280  -8.1164  -8.0639  -7.8613
    -7.8130  -7.7104  -7.5133  -7.3412  -7.1884  -7.0660  -6.9410  -6.9093
    -6.5392  -6.3429  -6.1451  -5.8203  -5.5782  -5.2983  -4.9249  -4.7389
    -4.4726  -4.3189  -4.0994  -3.8044  -2.8915  -2.8689  -2.8490  -2.7206
    -2.7001  -2.6775  -2.5038  -2.4732  -2.4394  -2.4338  -2.3400  -2.2928

          k = 0.3745-0.3027-0.3111 (  3101 PWs)   bands (ev):

   -20.9215 -20.7798 -20.6937 -20.6526 -20.5423 -20.4672 -20.3254 -20.2605
   -20.1428 -20.0675 -20.0180 -19.9106  -8.1572  -8.0827  -8.0081  -7.8732
    -7.8363  -7.6932  -7.4722  -7.3071  -7.1429  -7.0586  -6.9806  -6.9020
    -6.5329  -6.2383  -5.9856  -5.8485  -5.7621  -5.3393  -4.9638  -4.7236
    -4.5116  -4.2945  -4.1228  -3.7547  -2.9699  -2.9239  -2.8659  -2.7685
    -2.7117  -2.6448  -2.5215  -2.4642  -2.4393  -2.4158  -2.3195  -2.2823

          k = 0.2996-0.2595-0.4666 (  3099 PWs)   bands (ev):

   -20.9002 -20.7365 -20.6987 -20.6386 -20.6045 -20.5226 -20.2829 -20.2296
   -20.1809 -20.0454 -20.0252 -19.9220  -8.1661  -8.0342  -7.9489  -7.8943
    -7.8900  -7.6907  -7.4013  -7.3075  -7.1295  -7.0635  -6.9665  -6.8889
    -6.4790  -6.1803  -5.9984  -5.9155  -5.6995  -5.4613  -4.8966  -4.8149
    -4.5747  -4.2259  -4.1580  -3.7520  -3.0636  -2.9398  -2.8499  -2.8045
    -2.7312  -2.6154  -2.5533  -2.4973  -2.4666  -2.3809  -2.3212  -2.2674

          k = 0.3745 0.3027 0.7776 (  3099 PWs)   bands (ev):

   -20.8399 -20.7770 -20.7209 -20.6469 -20.6268 -20.5147 -20.3001 -20.1939
   -20.1579 -20.0570 -20.0105 -19.9419  -8.1919  -8.0166  -7.9627  -7.9060
    -7.8733  -7.6829  -7.4292  -7.2793  -7.1682  -6.9999  -6.9789  -6.9098
    -6.3571  -6.2490  -6.0002  -5.8796  -5.8377  -5.5010  -4.9146  -4.6929
    -4.4640  -4.2817  -4.1975  -3.7489  -3.0652  -2.9382  -2.8886  -2.8020
    -2.7731  -2.6049  -2.5335  -2.4850  -2.4662  -2.3818  -2.3247  -2.2529

     highest occupied level (ev):    -2.2233

!    total energy              =    -412.56774555 Ry
     estimated scf accuracy    <       0.00000002 Ry

     The total energy is the sum of the following terms:
     one-electron contribution =    -288.18268017 Ry
     hartree contribution      =     178.12740480 Ry
     xc contribution           =    -100.96787790 Ry
     ewald contribution        =    -201.54459227 Ry

     convergence has been achieved in  11 iterations

     Forces acting on atoms (cartesian axes, Ry/au):

     atom    1 type  2   force =    -0.03450120    0.06225914    0.03232929
     atom    2 type  2   force =     0.03450120   -0.06225914   -0.03232929
     atom    3 type  2   force =    -0.03666740   -0.06100848    0.03232929
     atom    4 type  2   force =     0.03666740    0.06100848   -0.03232929
     atom    5 type  2   force =     0.07116859   -0.00125066    0.03232929
     atom    6 type  2   force =    -0.07116859    0.00125066   -0.03232929
     atom    7 type  2   force =    -0.03318166    0.02439884   -0.01937190
     atom    8 type  2   force =     0.03318166   -0.02439884    0.01937190
     atom    9 type  2   force =    -0.00453918   -0.04093558   -0.01937190
     atom   10 type  2   force =     0.00453918    0.04093558    0.01937190
     atom   11 type  2   force =     0.03772084    0.01653674   -0.01937190
     atom   12 type  2   force =    -0.03772084   -0.01653674    0.01937190
     atom   13 type  1   force =     0.00248687   -0.02508176   -0.05141156
     atom   14 type  1   force =    -0.00248687    0.02508176    0.05141156
     atom   15 type  1   force =     0.02047800    0.01469458   -0.05141156
     atom   16 type  1   force =    -0.02047800   -0.01469458    0.05141156
     atom   17 type  1   force =    -0.02296488    0.01038718   -0.05141156
     atom   18 type  1   force =     0.02296488   -0.01038718    0.05141156
     atom   19 type  1   force =     0.02945251   -0.04496022    0.00985936
     atom   20 type  1   force =    -0.02945251    0.04496022   -0.00985936
     atom   21 type  1   force =     0.02421044    0.04798673    0.00985936
     atom   22 type  1   force =    -0.02421044   -0.04798673   -0.00985936
     atom   23 type  1   force =    -0.05366294   -0.00302651    0.00985936
     atom   24 type  1   force =     0.05366294    0.00302651   -0.00985936
     atom   25 type  1   force =    -0.01399190   -0.00290414    0.01276770
     atom   26 type  1   force =     0.01399190    0.00290414   -0.01276770
     atom   27 type  1   force =     0.00951101   -0.01066527    0.01276770
     atom   28 type  1   force =    -0.00951101    0.01066527   -0.01276770
     atom   29 type  1   force =     0.00448089    0.01356941    0.01276770
     atom   30 type  1   force =    -0.00448089   -0.01356941   -0.01276770
     atom   31 type  1   force =    -0.02904292   -0.00889382    0.01615027
     atom   32 type  1   force =     0.02904292    0.00889382   -0.01615027
     atom   33 type  1   force =     0.02222373   -0.02070499    0.01615027
     atom   34 type  1   force =    -0.02222373    0.02070499   -0.01615027
     atom   35 type  1   force =     0.00681918    0.02959881    0.01615027
     atom   36 type  1   force =    -0.00681918   -0.02959881   -0.01615027

     Total force =     0.309824     Total SCF correction =     0.000213


     Computing stress (Cartesian axis) and pressure

          total   stress  (Ry/bohr**3)                   (kbar)     P=     -443.60
  -0.00308936   0.00000000   0.00000000         -454.46        0.00        0.00
  -0.00000000  -0.00308936  -0.00000000           -0.00     -454.46       -0.00
   0.00000000  -0.00000000  -0.00286785            0.00       -0.00     -421.88


     Writing all to output data dir ./iceII_2/iceII_2.save/ :
     XML data file, charge density, pseudopotentials, collected wavefunctions

     init_run     :      0.48s CPU      0.51s WALL (       1 calls)
     electrons    :      8.38s CPU      8.82s WALL (       1 calls)
     forces       :      0.06s CPU      0.07s WALL (       1 calls)
     stress       :      0.51s CPU      0.52s WALL (       1 calls)

     Called by init_run:
     wfcinit      :      0.32s CPU      0.33s WALL (       1 calls)
     potinit      :      0.02s CPU      0.03s WALL (       1 calls)
     hinit0       :      0.12s CPU      0.12s WALL (       1 calls)

     Called by electrons:
     c_bands      :      7.42s CPU      7.77s WALL (      11 calls)
     sum_band     :      0.87s CPU      0.90s WALL (      11 calls)
     v_of_rho     :      0.07s CPU      0.07s WALL (      12 calls)
     newd         :      0.01s CPU      0.01s WALL (      12 calls)
     mix_rho      :      0.01s CPU      0.01s WALL (      11 calls)

     Called by c_bands:
     init_us_2    :      0.05s CPU      0.06s WALL (     300 calls)
     cegterg      :      7.29s CPU      7.52s WALL (     132 calls)

     Called by *egterg:
     cdiaghg      :      1.65s CPU      1.68s WALL (     440 calls)
     h_psi        :      5.04s CPU      5.20s WALL (     452 calls)
     s_psi        :      0.17s CPU      0.18s WALL (     452 calls)
     g_psi        :      0.01s CPU      0.01s WALL (     308 calls)

     Called by h_psi:
     h_psi:calbec :      0.24s CPU      0.24s WALL (     452 calls)
     vloc_psi     :      4.60s CPU      4.75s WALL (     452 calls)
     add_vuspsi   :      0.18s CPU      0.19s WALL (     452 calls)

     General routines
     calbec       :      0.34s CPU      0.35s WALL (     644 calls)
     fft          :      0.14s CPU      0.14s WALL (     140 calls)
     ffts         :      0.00s CPU      0.00s WALL (      11 calls)
     fftw         :      4.99s CPU      5.15s WALL (   45044 calls)

     Parallel routines

     PWSCF        :      9.71s CPU     10.48s WALL


   This run was terminated on:  14:56:56  19Mar2026            

=------------------------------------------------------------------------------=
   JOB DONE.
=------------------------------------------------------------------------------=
