
     Program PWSCF v.7.3.1 starts on 19Mar2026 at 14:56:11 

     This program is part of the open-source Quantum ESPRESSO suite
     for quantum simulation of materials; please cite
         "P. Giannozzi et al., J. Phys.:Condens. Matter 21 395502 (2009);
         "P. Giannozzi et al., J. Phys.:Condens. Matter 29 465901 (2017);
         "P. Giannozzi et al., J. Chem. Phys. 152 154105 (2020);
          URL http://www.quantum-espresso.org", 
     in publications or presentations arising from this work. More details at
     http://www.quantum-espresso.org/quote

     Parallel version (MPI), running on   128 processors

     MPI processes distributed on     1 nodes
     243461 MiB available memory on the printing compute node when the environment starts

     Waiting for input...
     Reading input from standard input

     Current dimensions of program PWSCF are:
     Max number of different atomic species (ntypx) = 10
     Max number of k-points (npk) =  40000
     Max angular momentum in pseudopotentials (lmaxx) =  4

     K-points division:     npool     =       8
     R & G space division:  proc/nbgrp/npool/nimage =      16
     Subspace diagonalization in iterative solution of the eigenvalue problem:
     a serial algorithm will be used


     Parallelization info
     --------------------
     sticks:   dense  smooth     PW     G-vecs:    dense   smooth      PW
     Min          78      78     27                 1547     1547     316
     Max          79      79     28                 1550     1550     319
     Sum        1253    1253    441                24773    24773    5077

     Using Slab Decomposition



     bravais-lattice index     =            5
     lattice parameter (alat)  =      14.7021  a.u.
     unit-cell volume          =    2053.1832 (a.u.)^3
     number of atoms/cell      =           36
     number of atomic types    =            2
     number of electrons       =        96.00
     number of Kohn-Sham states=           48
     kinetic-energy cutoff     =      20.0000  Ry
     charge density cutoff     =      80.0000  Ry
     scf convergence threshold =      1.0E-07
     mixing beta               =       0.7000
     number of iterations used =            8  plain     mixing
     Exchange-correlation=  SLA  PW   PBE  PBE
                           (   1   4   3   4   0   0   0)

     celldm(1)=  14.702068  celldm(2)=   0.000000  celldm(3)=   0.000000
     celldm(4)=  -0.392337  celldm(5)=   0.000000  celldm(6)=   0.000000

     crystal axes: (cart. coord. in units of alat)
               a(1) = (   0.834367  -0.481722   0.267909 )  
               a(2) = (   0.000000   0.963444   0.267909 )  
               a(3) = (  -0.834367  -0.481722   0.267909 )  

     reciprocal axes: (cart. coord. in units 2 pi/alat)
               b(1) = (  0.599257 -0.345981  1.244203 )  
               b(2) = ( -0.000000  0.691962  1.244203 )  
               b(3) = ( -0.599257 -0.345981  1.244203 )  


     PseudoPot. # 1 for H  read from file:
     ./H.pbe-van_ak.UPF
     MD5 check sum: 077eb6d537518a38cb46c6de387227b7
     Pseudo is Ultrasoft, Zval =  1.0
     Generated by new atomic code, or converted to UPF format
     Using radial grid of  615 points,  1 beta functions with: 
                l(1) =   0
     Q(r) pseudized with  8 coefficients,  rinner =    0.800

     PseudoPot. # 2 for O  read from file:
     ./O.pbe-van_ak.UPF
     MD5 check sum: 78c19812648e8988a0fe644b0f25305e
     Pseudo is Ultrasoft, Zval =  6.0
     Generated by new atomic code, or converted to UPF format
     Using radial grid of  737 points,  4 beta functions with: 
                l(1) =   0
                l(2) =   0
                l(3) =   1
                l(4) =   1
     Q(r) pseudized with  8 coefficients,  rinner =    0.800   0.800   0.800


     atomic species   valence    mass     pseudopotential
     H                 1.00     1.00800     H ( 1.00)
     O                 6.00    16.00000     O ( 1.00)

      6 Sym. Ops., with inversion, found



   Cartesian axes

     site n.     atom                  positions (alat units)
         1        O      tau(   1) = (  -0.4847673  -0.5197781   0.3083633  )
         2        O      tau(   2) = (   0.4847673   0.5197782   0.4953638  )
         3        O      tau(   3) = (   0.6925247  -0.1599317   0.3083633  )
         4        O      tau(   4) = (  -0.6925248   0.1599317   0.4953638  )
         5        O      tau(   5) = (  -0.2077574   0.6797099   0.3083633  )
         6        O      tau(   6) = (   0.2077574  -0.6797099   0.4953638  )
         7        O      tau(   7) = (   0.1218176   0.3323883   0.4179381  )
         8        O      tau(   8) = (  -0.1218176  -0.3323883   0.3857890  )
         9        O      tau(   9) = (  -0.3487655  -0.0606970   0.4179381  )
        10        O      tau(  10) = (   0.3487655   0.0606970   0.3857890  )
        11        O      tau(  11) = (   0.2269479  -0.2716913   0.4179381  )
        12        O      tau(  12) = (  -0.2269479   0.2716912   0.3857890  )
        13        H      tau(  13) = (  -0.5381668  -0.4032014   0.2796970  )
        14        H      tau(  14) = (   0.5381668   0.4032014   0.5240301  )
        15        H      tau(  15) = (   0.6182661  -0.2644654   0.2796970  )
        16        H      tau(  16) = (  -0.6182661   0.2644654   0.5240301  )
        17        H      tau(  17) = (  -0.0800993   0.6676668   0.2796970  )
        18        H      tau(  18) = (   0.0800993  -0.6676668   0.5240301  )
        19        H      tau(  19) = (  -0.4872704  -0.4817221   0.4326731  )
        20        H      tau(  20) = (   0.4872704   0.4817221   0.3710540  )
        21        H      tau(  21) = (   0.6608188  -0.1811275   0.4326731  )
        22        H      tau(  22) = (  -0.6608188   0.1811275   0.3710540  )
        23        H      tau(  23) = (  -0.1735484   0.6628496   0.4326731  )
        24        H      tau(  24) = (   0.1735484  -0.6628496   0.3710540  )
        25        H      tau(  25) = (   0.2703349  -0.1502973   0.4058822  )
        26        H      tau(  26) = (  -0.2703350   0.1502973   0.3978449  )
        27        H      tau(  27) = (  -0.0050062   0.3092656   0.4058822  )
        28        H      tau(  28) = (   0.0050062  -0.3092656   0.3978449  )
        29        H      tau(  29) = (  -0.2653287  -0.1589683   0.4058822  )
        30        H      tau(  30) = (   0.2653287   0.1589683   0.3978449  )
        31        H      tau(  31) = (   0.3178939  -0.3347969   0.3493534  )
        32        H      tau(  32) = (  -0.3178939   0.3347969   0.4543737  )
        33        H      tau(  33) = (   0.1309957   0.4427026   0.3493534  )
        34        H      tau(  34) = (  -0.1309956  -0.4427026   0.4543737  )
        35        H      tau(  35) = (  -0.4488895  -0.1079057   0.3493534  )
        36        H      tau(  36) = (   0.4488895   0.1079057   0.4543737  )

     number of k points=    14
                       cart. coord. in units 2pi/alat
        k(    1) = (   0.0000000   0.0000000   0.0000000), wk =   0.0312500
        k(    2) = (  -0.1498141  -0.0864952   0.3110508), wk =   0.1875000
        k(    3) = (   0.2996283   0.1729905  -0.6221017), wk =   0.0937500
        k(    4) = (  -0.1498141   0.0864952   0.6221017), wk =   0.1875000
        k(    5) = (   0.2996283   0.3459809  -0.3110508), wk =   0.1875000
        k(    6) = (   0.1498141   0.2594857   0.0000000), wk =   0.1875000
        k(    7) = (   0.2996283  -0.1729905  -1.2442034), wk =   0.0937500
        k(    8) = (   0.0000000   0.0000000   0.9331525), wk =   0.0625000
        k(    9) = (   0.4494424   0.2594857   0.0000000), wk =   0.1875000
        k(   10) = (   0.2996283   0.1729905   0.3110508), wk =   0.1875000
        k(   11) = (   0.4494424  -0.2594857  -0.9331525), wk =   0.1875000
        k(   12) = (   0.2996283  -0.3459809  -0.6221017), wk =   0.1875000
        k(   13) = (   0.0000000   0.0000000  -1.8663050), wk =   0.0312500
        k(   14) = (   0.2996283  -0.3459809   0.3110508), wk =   0.1875000

     Dense  grid:    24773 G-vectors     FFT dimensions: (  45,  45,  45)

     Estimated max dynamical RAM per process >       3.65 MB

     Estimated total dynamical RAM >     425.45 MB

     Initial potential from superposition of free atoms

     starting charge      95.9998, renormalised to      96.0000

     negative rho (up, down):  7.718E-04 0.000E+00
     Starting wfcs are   72 randomized atomic wfcs

     total cpu time spent up to now is        0.5 secs

     per-process dynamical memory:     9.4 Mb

     Self-consistent Calculation

     iteration #  1     ecut=    20.00 Ry     beta= 0.70
     Davidson diagonalization with overlap
     ethr =  1.00E-02,  avg # of iterations =  2.0

     negative rho (up, down):  8.262E-03 0.000E+00

     total cpu time spent up to now is        0.6 secs

     total energy              =    -411.46041345 Ry
     estimated scf accuracy    <       2.93563605 Ry

     iteration #  2     ecut=    20.00 Ry     beta= 0.70
     Davidson diagonalization with overlap
     ethr =  3.06E-03,  avg # of iterations =  2.0

     negative rho (up, down):  6.317E-03 0.000E+00

     total cpu time spent up to now is        0.8 secs

     total energy              =    -412.32959140 Ry
     estimated scf accuracy    <       1.56835706 Ry

     iteration #  3     ecut=    20.00 Ry     beta= 0.70
     Davidson diagonalization with overlap
     ethr =  1.63E-03,  avg # of iterations =  2.0

     negative rho (up, down):  8.266E-03 0.000E+00

     total cpu time spent up to now is        0.9 secs

     total energy              =    -412.55705502 Ry
     estimated scf accuracy    <       0.02970009 Ry

     iteration #  4     ecut=    20.00 Ry     beta= 0.70
     Davidson diagonalization with overlap
     ethr =  3.09E-05,  avg # of iterations =  3.0

     negative rho (up, down):  8.109E-03 0.000E+00

     total cpu time spent up to now is        1.1 secs

     total energy              =    -412.56654591 Ry
     estimated scf accuracy    <       0.02024230 Ry

     iteration #  5     ecut=    20.00 Ry     beta= 0.70
     Davidson diagonalization with overlap
     ethr =  2.11E-05,  avg # of iterations =  1.0

     negative rho (up, down):  8.163E-03 0.000E+00

     total cpu time spent up to now is        1.2 secs

     total energy              =    -412.56716159 Ry
     estimated scf accuracy    <       0.00353642 Ry

     iteration #  6     ecut=    20.00 Ry     beta= 0.70
     Davidson diagonalization with overlap
     ethr =  3.68E-06,  avg # of iterations =  2.0

     negative rho (up, down):  8.150E-03 0.000E+00

     total cpu time spent up to now is        1.3 secs

     total energy              =    -412.56696112 Ry
     estimated scf accuracy    <       0.00120205 Ry

     iteration #  7     ecut=    20.00 Ry     beta= 0.70
     Davidson diagonalization with overlap
     ethr =  1.25E-06,  avg # of iterations =  2.0

     negative rho (up, down):  8.117E-03 0.000E+00

     total cpu time spent up to now is        1.4 secs

     total energy              =    -412.56717078 Ry
     estimated scf accuracy    <       0.00001593 Ry

     iteration #  8     ecut=    20.00 Ry     beta= 0.70
     Davidson diagonalization with overlap
     ethr =  1.66E-08,  avg # of iterations =  2.8

     negative rho (up, down):  8.107E-03 0.000E+00

     total cpu time spent up to now is        1.6 secs

     total energy              =    -412.56717752 Ry
     estimated scf accuracy    <       0.00000024 Ry

     iteration #  9     ecut=    20.00 Ry     beta= 0.70
     Davidson diagonalization with overlap
     ethr =  2.55E-10,  avg # of iterations =  4.1

     negative rho (up, down):  8.102E-03 0.000E+00

     total cpu time spent up to now is        1.8 secs

     total energy              =    -412.56717697 Ry
     estimated scf accuracy    <       0.00000307 Ry

     iteration # 10     ecut=    20.00 Ry     beta= 0.70
     Davidson diagonalization with overlap
     ethr =  2.55E-10,  avg # of iterations =  3.0

     negative rho (up, down):  8.100E-03 0.000E+00

     total cpu time spent up to now is        1.9 secs

     total energy              =    -412.56717729 Ry
     estimated scf accuracy    <       0.00000015 Ry

     iteration # 11     ecut=    20.00 Ry     beta= 0.70
     Davidson diagonalization with overlap
     ethr =  1.61E-10,  avg # of iterations =  2.0

     negative rho (up, down):  8.098E-03 0.000E+00

     total cpu time spent up to now is        2.0 secs

     End of self-consistent calculation

          k = 0.0000 0.0000 0.0000 (  3119 PWs)   bands (ev):

   -21.1031 -20.6477 -20.6477 -20.4282 -20.4282 -20.4007 -20.4007 -20.3877
   -20.3856 -20.0887 -20.0887 -19.7769  -8.1838  -7.9886  -7.9330  -7.9330
    -7.8451  -7.8451  -7.4552  -7.2797  -7.2797  -7.0568  -7.0568  -6.9249
    -6.8607  -6.0008  -6.0008  -5.4022  -5.4022  -5.3236  -5.3236  -5.0435
    -4.8374  -4.1959  -4.1959  -3.5210  -2.8395  -2.8395  -2.7559  -2.6537
    -2.6296  -2.6296  -2.4677  -2.4677  -2.4519  -2.4405  -2.3981  -2.3981

          k =-0.1498-0.0865 0.3111 (  3118 PWs)   bands (ev):

   -21.0310 -20.6885 -20.6364 -20.5718 -20.5464 -20.4750 -20.3335 -20.2904
   -20.2363 -20.0932 -20.0519 -19.8347  -8.1266  -8.0543  -7.9734  -7.9257
    -7.8181  -7.7620  -7.4474  -7.2563  -7.2418  -7.0815  -6.9529  -6.9327
    -6.7231  -6.1430  -6.0043  -5.7382  -5.4204  -5.2853  -5.1512  -4.9224
    -4.8622  -4.1895  -4.1269  -3.6679  -2.9679  -2.8907  -2.7727  -2.7220
    -2.6626  -2.6257  -2.5861  -2.5203  -2.4608  -2.4080  -2.3673  -2.3163

          k = 0.2996 0.1730-0.6221 (  3096 PWs)   bands (ev):

   -20.8397 -20.8393 -20.6704 -20.6551 -20.5469 -20.5421 -20.2783 -20.2690
   -20.0976 -20.0958 -19.9876 -19.9698  -8.1033  -8.0376  -7.9584  -7.9291
    -7.8214  -7.7567  -7.3742  -7.2450  -7.2031  -7.0996  -6.8582  -6.8542
    -6.4806  -6.3603  -6.0428  -5.8825  -5.4184  -5.3393  -5.1359  -4.9730
    -4.4351  -4.3292  -4.0651  -3.8447  -3.0745  -2.8949  -2.7889  -2.7631
    -2.6969  -2.6779  -2.5743  -2.5277  -2.5128  -2.3714  -2.3396  -2.2669

          k =-0.1498 0.0865 0.6221 (  3094 PWs)   bands (ev):

   -20.8813 -20.7448 -20.7352 -20.6183 -20.5958 -20.5306 -20.2832 -20.2037
   -20.1680 -20.0515 -20.0338 -19.9432  -8.1134  -8.0124  -7.9949  -7.8904
    -7.8378  -7.7438  -7.3815  -7.2823  -7.2246  -6.9911  -6.9124  -6.8518
    -6.4862  -6.2952  -6.1888  -5.7170  -5.5464  -5.3778  -5.0545  -4.8573
    -4.6543  -4.1521  -4.1255  -3.8518  -3.0455  -2.9500  -2.7729  -2.7333
    -2.7096  -2.6523  -2.6028  -2.5143  -2.4996  -2.3770  -2.3534  -2.2585

          k = 0.2996 0.3460-0.3111 (  3097 PWs)   bands (ev):

   -20.9329 -20.7771 -20.6725 -20.6476 -20.5671 -20.4986 -20.2867 -20.1855
   -20.1771 -20.0895 -20.0289 -19.9190  -8.1232  -8.0909  -7.9300  -7.9077
    -7.8520  -7.7568  -7.4147  -7.3492  -7.2174  -6.9595  -6.9266  -6.8427
    -6.6212  -6.3328  -6.0890  -5.7507  -5.7003  -5.2015  -5.0206  -4.7634
    -4.5314  -4.3022  -4.0973  -3.8273  -2.9512  -2.8790  -2.7938  -2.7249
    -2.6690  -2.6311  -2.5587  -2.5404  -2.4668  -2.4196  -2.3560  -2.2557

          k = 0.1498 0.2595 0.0000 (  3119 PWs)   bands (ev):

   -21.0499 -20.7229 -20.6671 -20.5391 -20.5118 -20.4303 -20.3531 -20.2812
   -20.2421 -20.0980 -20.0626 -19.8243  -8.1685  -8.0732  -7.9637  -7.9152
    -7.8037  -7.7932  -7.5048  -7.3434  -7.1608  -7.0625  -7.0029  -6.8908
    -6.8566  -6.1256  -5.9873  -5.7329  -5.6153  -5.1626  -5.0246  -4.8979
    -4.7127  -4.2615  -4.1740  -3.6226  -2.8451  -2.8298  -2.7813  -2.7037
    -2.6612  -2.6349  -2.5115  -2.4966  -2.4664  -2.4469  -2.3542  -2.3323

          k = 0.2996-0.1730-1.2442 (  3094 PWs)   bands (ev):

   -20.9212 -20.8847 -20.6813 -20.5876 -20.5104 -20.4530 -20.2974 -20.2633
   -20.1520 -20.1306 -19.9525 -19.9377  -8.1481  -8.1094  -7.9570  -7.9289
    -7.7689  -7.7670  -7.4792  -7.4053  -7.1390  -7.0872  -6.9050  -6.8443
    -6.5602  -6.5095  -6.0543  -5.8351  -5.5066  -5.2645  -4.8976  -4.6313
    -4.5257  -4.4621  -4.0129  -3.8338  -2.8636  -2.8006  -2.7978  -2.7238
    -2.6474  -2.5735  -2.5552  -2.5012  -2.4882  -2.4384  -2.3116  -2.2825

          k = 0.0000 0.0000 0.9332 (  3084 PWs)   bands (ev):

   -20.8256 -20.8256 -20.7475 -20.7033 -20.5275 -20.5275 -20.2115 -20.2115
   -20.0914 -20.0549 -20.0255 -20.0255  -8.0896  -8.0896  -7.9339  -7.8455
    -7.8455  -7.8424  -7.4171  -7.3096  -7.3096  -6.8528  -6.8528  -6.8010
    -6.4352  -6.4239  -6.4239  -5.7728  -5.4548  -5.4548  -4.8156  -4.6229
    -4.6229  -4.1698  -4.1698  -4.0019  -2.8864  -2.8864  -2.7663  -2.6954
    -2.6308  -2.6308  -2.5843  -2.5196  -2.5196  -2.3973  -2.3973  -2.2234

          k = 0.4494 0.2595 0.0000 (  3100 PWs)   bands (ev):

   -20.9512 -20.7861 -20.7797 -20.5894 -20.4559 -20.4464 -20.3123 -20.3057
   -20.1524 -20.0596 -20.0273 -19.9083  -8.1370  -8.1026  -8.0203  -7.8679
    -7.8207  -7.7471  -7.5001  -7.3627  -7.2269  -6.9764  -6.9307  -6.8759
    -6.6597  -6.2970  -6.2107  -5.7874  -5.5307  -5.2573  -4.8202  -4.7745
    -4.5653  -4.2694  -4.1342  -3.8048  -2.8333  -2.8292  -2.7823  -2.7368
    -2.6823  -2.6075  -2.5273  -2.5057  -2.4676  -2.4181  -2.3621  -2.2712

          k = 0.2996 0.1730 0.3111 (  3112 PWs)   bands (ev):

   -20.9806 -20.7337 -20.6459 -20.6333 -20.5470 -20.4895 -20.3019 -20.2711
   -20.2010 -20.0809 -20.0288 -19.8728  -8.1365  -8.0834  -7.9967  -7.8690
    -7.8632  -7.7072  -7.4582  -7.3214  -7.1278  -7.0679  -7.0046  -6.9025
    -6.6417  -6.1437  -5.9643  -5.8761  -5.6522  -5.3049  -5.0105  -4.8127
    -4.6616  -4.2509  -4.1210  -3.7098  -2.9814  -2.9098  -2.8267  -2.7770
    -2.6703  -2.6411  -2.5477  -2.5171  -2.4392  -2.3938  -2.3360  -2.3122

          k = 0.4494-0.2595-0.9332 (  3098 PWs)   bands (ev):

   -20.8507 -20.8485 -20.7128 -20.6588 -20.5343 -20.4588 -20.3392 -20.2563
   -20.1149 -20.0623 -20.0116 -19.9318  -8.1694  -8.0647  -8.0301  -7.8688
    -7.8276  -7.6859  -7.4965  -7.2750  -7.1540  -7.0891  -6.9434  -6.9127
    -6.3937  -6.3545  -6.0373  -5.8827  -5.6976  -5.3861  -4.9659  -4.6756
    -4.3878  -4.3442  -4.1612  -3.7720  -2.9663  -2.9141  -2.8744  -2.7697
    -2.7244  -2.6533  -2.4920  -2.4744  -2.4442  -2.3972  -2.3322  -2.2654

          k = 0.2996-0.3460-0.6221 (  3090 PWs)   bands (ev):

   -20.8056 -20.8014 -20.7011 -20.6910 -20.5654 -20.5635 -20.2610 -20.2536
   -20.1038 -20.0955 -19.9822 -19.9636  -8.1776  -7.9747  -7.9407  -7.9206
    -7.8930  -7.6886  -7.3972  -7.2898  -7.1228  -7.0787  -6.9130  -6.9054
    -6.3526  -6.2323  -6.0612  -5.9261  -5.6249  -5.5899  -4.8849  -4.8156
    -4.3933  -4.3511  -4.1677  -3.7528  -3.1020  -2.9223  -2.8771  -2.8040
    -2.7580  -2.6118  -2.5422  -2.5009  -2.4795  -2.3528  -2.3230  -2.2520

          k = 0.0000 0.0000-1.8663 (  3084 PWs)   bands (ev):

   -20.7726 -20.7586 -20.6670 -20.6670 -20.6615 -20.6615 -20.1867 -20.1867
   -20.1522 -20.1522 -19.9670 -19.9520  -8.2287  -7.9455  -7.9455  -7.9151
    -7.9151  -7.6572  -7.4457  -7.2867  -7.0117  -7.0117  -6.9883  -6.9883
    -6.1844  -5.9719  -5.9520  -5.9520  -5.9420  -5.9420  -4.6747  -4.6747
    -4.4309  -4.4309  -4.1739  -3.6907  -3.1311  -2.9337  -2.9337  -2.8335
    -2.8335  -2.5442  -2.5437  -2.4383  -2.4383  -2.3512  -2.3512  -2.2301

          k = 0.2996-0.3460 0.3111 (  3097 PWs)   bands (ev):

   -20.9329 -20.7767 -20.6784 -20.6443 -20.5637 -20.4995 -20.2875 -20.1995
   -20.1573 -20.1000 -20.0218 -19.9199  -8.1350  -8.0576  -7.9644  -7.9048
    -7.8280  -7.7589  -7.4643  -7.3109  -7.1920  -7.0029  -6.8904  -6.8683
    -6.6136  -6.2621  -6.1893  -5.7947  -5.5528  -5.2709  -5.1050  -4.6694
    -4.5142  -4.2939  -4.1786  -3.7955  -2.9633  -2.8560  -2.8054  -2.7339
    -2.6708  -2.6186  -2.5644  -2.5395  -2.4893  -2.3894  -2.3474  -2.2603

     highest occupied level (ev):    -2.2234

!    total energy              =    -412.56717729 Ry
     estimated scf accuracy    <       0.00000002 Ry

     The total energy is the sum of the following terms:
     one-electron contribution =    -288.18181862 Ry
     hartree contribution      =     178.12698391 Ry
     xc contribution           =    -100.96775030 Ry
     ewald contribution        =    -201.54459227 Ry

     convergence has been achieved in  11 iterations

     Forces acting on atoms (cartesian axes, Ry/au):

     atom    1 type  2   force =    -0.03444602    0.06225115    0.03233572
     atom    2 type  2   force =     0.03444602   -0.06225115   -0.03233572
     atom    3 type  2   force =    -0.03668806   -0.06095670    0.03233572
     atom    4 type  2   force =     0.03668806    0.06095670   -0.03233572
     atom    5 type  2   force =     0.07113408   -0.00129444    0.03233572
     atom    6 type  2   force =    -0.07113408    0.00129444   -0.03233572
     atom    7 type  2   force =    -0.03321967    0.02443194   -0.01942453
     atom    8 type  2   force =     0.03321967   -0.02443194    0.01942453
     atom    9 type  2   force =    -0.00454885   -0.04098505   -0.01942453
     atom   10 type  2   force =     0.00454885    0.04098505    0.01942453
     atom   11 type  2   force =     0.03776852    0.01655311   -0.01942453
     atom   12 type  2   force =    -0.03776852   -0.01655311    0.01942453
     atom   13 type  1   force =     0.00248227   -0.02509838   -0.05141211
     atom   14 type  1   force =    -0.00248227    0.02509838    0.05141211
     atom   15 type  1   force =     0.02049470    0.01469890   -0.05141211
     atom   16 type  1   force =    -0.02049470   -0.01469890    0.05141211
     atom   17 type  1   force =    -0.02297697    0.01039948   -0.05141211
     atom   18 type  1   force =     0.02297697   -0.01039948    0.05141211
     atom   19 type  1   force =     0.02944324   -0.04492929    0.00983606
     atom   20 type  1   force =    -0.02944324    0.04492929   -0.00983606
     atom   21 type  1   force =     0.02418828    0.04796324    0.00983606
     atom   22 type  1   force =    -0.02418828   -0.04796324   -0.00983606
     atom   23 type  1   force =    -0.05363152   -0.00303395    0.00983606
     atom   24 type  1   force =     0.05363152    0.00303395   -0.00983606
     atom   25 type  1   force =    -0.01399863   -0.00290321    0.01277816
     atom   26 type  1   force =     0.01399863    0.00290321   -0.01277816
     atom   27 type  1   force =     0.00951357   -0.01067157    0.01277816
     atom   28 type  1   force =    -0.00951357    0.01067157   -0.01277816
     atom   29 type  1   force =     0.00448506    0.01357478    0.01277816
     atom   30 type  1   force =    -0.00448506   -0.01357478   -0.01277816
     atom   31 type  1   force =    -0.02905890   -0.00886387    0.01611390
     atom   32 type  1   force =     0.02905890    0.00886387   -0.01611390
     atom   33 type  1   force =     0.02220578   -0.02073381    0.01611390
     atom   34 type  1   force =    -0.02220578    0.02073381   -0.01611390
     atom   35 type  1   force =     0.00685311    0.02959768    0.01611390
     atom   36 type  1   force =    -0.00685311   -0.02959768   -0.01611390

     Total force =     0.309810     Total SCF correction =     0.000224


     Computing stress (Cartesian axis) and pressure

          total   stress  (Ry/bohr**3)                   (kbar)     P=     -443.75
  -0.00309057  -0.00000000  -0.00000000         -454.64       -0.00       -0.00
   0.00000000  -0.00309057  -0.00000000            0.00     -454.64       -0.00
  -0.00000000  -0.00000000  -0.00286859           -0.00       -0.00     -421.98


     Writing all to output data dir ./iceII_2/iceII_2.save/ :
     XML data file, charge density, pseudopotentials, collected wavefunctions

     init_run     :      0.22s CPU      0.26s WALL (       1 calls)
     electrons    :      1.48s CPU      1.59s WALL (       1 calls)
     forces       :      0.03s CPU      0.03s WALL (       1 calls)
     stress       :      0.09s CPU      0.10s WALL (       1 calls)

     Called by init_run:
     wfcinit      :      0.06s CPU      0.06s WALL (       1 calls)
     potinit      :      0.01s CPU      0.02s WALL (       1 calls)
     hinit0       :      0.13s CPU      0.13s WALL (       1 calls)

     Called by electrons:
     c_bands      :      1.24s CPU      1.29s WALL (      11 calls)
     sum_band     :      0.16s CPU      0.17s WALL (      11 calls)
     v_of_rho     :      0.05s CPU      0.06s WALL (      12 calls)
     newd         :      0.01s CPU      0.02s WALL (      12 calls)
     mix_rho      :      0.01s CPU      0.01s WALL (      11 calls)

     Called by c_bands:
     init_us_2    :      0.01s CPU      0.01s WALL (      50 calls)
     cegterg      :      1.21s CPU      1.25s WALL (      22 calls)

     Called by *egterg:
     cdiaghg      :      0.27s CPU      0.27s WALL (      74 calls)
     h_psi        :      0.85s CPU      0.87s WALL (      76 calls)
     s_psi        :      0.03s CPU      0.03s WALL (      76 calls)
     g_psi        :      0.00s CPU      0.00s WALL (      52 calls)

     Called by h_psi:
     h_psi:calbec :      0.04s CPU      0.04s WALL (      76 calls)
     vloc_psi     :      0.77s CPU      0.79s WALL (      76 calls)
     add_vuspsi   :      0.03s CPU      0.03s WALL (      76 calls)

     General routines
     calbec       :      0.06s CPU      0.06s WALL (     108 calls)
     fft          :      0.14s CPU      0.14s WALL (     140 calls)
     ffts         :      0.00s CPU      0.00s WALL (      11 calls)
     fftw         :      0.84s CPU      0.86s WALL (    7502 calls)

     Parallel routines

     PWSCF        :      2.01s CPU      2.30s WALL


   This run was terminated on:  14:56:13  19Mar2026            

=------------------------------------------------------------------------------=
   JOB DONE.
=------------------------------------------------------------------------------=
