
     Program PWSCF v.7.3.1 starts on 19Mar2026 at 14:56:36 

     This program is part of the open-source Quantum ESPRESSO suite
     for quantum simulation of materials; please cite
         "P. Giannozzi et al., J. Phys.:Condens. Matter 21 395502 (2009);
         "P. Giannozzi et al., J. Phys.:Condens. Matter 29 465901 (2017);
         "P. Giannozzi et al., J. Chem. Phys. 152 154105 (2020);
          URL http://www.quantum-espresso.org", 
     in publications or presentations arising from this work. More details at
     http://www.quantum-espresso.org/quote

     Parallel version (MPI), running on   128 processors

     MPI processes distributed on     1 nodes
     243239 MiB available memory on the printing compute node when the environment starts

     Waiting for input...
     Reading input from standard input

     Current dimensions of program PWSCF are:
     Max number of different atomic species (ntypx) = 10
     Max number of k-points (npk) =  40000
     Max angular momentum in pseudopotentials (lmaxx) =  4

     K-points division:     npool     =       8
     R & G space division:  proc/nbgrp/npool/nimage =      16
     Subspace diagonalization in iterative solution of the eigenvalue problem:
     a serial algorithm will be used


     Parallelization info
     --------------------
     sticks:   dense  smooth     PW     G-vecs:    dense   smooth      PW
     Min          78      78     26                 1547     1547     297
     Max          79      79     27                 1550     1550     298
     Sum        1253    1253    421                24773    24773    4753

     Using Slab Decomposition



     bravais-lattice index     =            5
     lattice parameter (alat)  =      14.7021  a.u.
     unit-cell volume          =    2053.1832 (a.u.)^3
     number of atoms/cell      =           36
     number of atomic types    =            2
     number of electrons       =        96.00
     number of Kohn-Sham states=           48
     kinetic-energy cutoff     =      20.0000  Ry
     charge density cutoff     =      80.0000  Ry
     scf convergence threshold =      1.0E-07
     mixing beta               =       0.7000
     number of iterations used =            8  plain     mixing
     Exchange-correlation=  SLA  PW   PBE  PBE
                           (   1   4   3   4   0   0   0)

     celldm(1)=  14.702068  celldm(2)=   0.000000  celldm(3)=   0.000000
     celldm(4)=  -0.392337  celldm(5)=   0.000000  celldm(6)=   0.000000

     crystal axes: (cart. coord. in units of alat)
               a(1) = (   0.834367  -0.481722   0.267909 )  
               a(2) = (   0.000000   0.963444   0.267909 )  
               a(3) = (  -0.834367  -0.481722   0.267909 )  

     reciprocal axes: (cart. coord. in units 2 pi/alat)
               b(1) = (  0.599257 -0.345981  1.244203 )  
               b(2) = ( -0.000000  0.691962  1.244203 )  
               b(3) = ( -0.599257 -0.345981  1.244203 )  


     PseudoPot. # 1 for H  read from file:
     ./H.pbe-van_ak.UPF
     MD5 check sum: 077eb6d537518a38cb46c6de387227b7
     Pseudo is Ultrasoft, Zval =  1.0
     Generated by new atomic code, or converted to UPF format
     Using radial grid of  615 points,  1 beta functions with: 
                l(1) =   0
     Q(r) pseudized with  8 coefficients,  rinner =    0.800

     PseudoPot. # 2 for O  read from file:
     ./O.pbe-van_ak.UPF
     MD5 check sum: 78c19812648e8988a0fe644b0f25305e
     Pseudo is Ultrasoft, Zval =  6.0
     Generated by new atomic code, or converted to UPF format
     Using radial grid of  737 points,  4 beta functions with: 
                l(1) =   0
                l(2) =   0
                l(3) =   1
                l(4) =   1
     Q(r) pseudized with  8 coefficients,  rinner =    0.800   0.800   0.800


     atomic species   valence    mass     pseudopotential
     H                 1.00     1.00800     H ( 1.00)
     O                 6.00    16.00000     O ( 1.00)

      6 Sym. Ops., with inversion, found



   Cartesian axes

     site n.     atom                  positions (alat units)
         1        O      tau(   1) = (  -0.4847673  -0.5197781   0.3083633  )
         2        O      tau(   2) = (   0.4847673   0.5197782   0.4953638  )
         3        O      tau(   3) = (   0.6925247  -0.1599317   0.3083633  )
         4        O      tau(   4) = (  -0.6925248   0.1599317   0.4953638  )
         5        O      tau(   5) = (  -0.2077574   0.6797099   0.3083633  )
         6        O      tau(   6) = (   0.2077574  -0.6797099   0.4953638  )
         7        O      tau(   7) = (   0.1218176   0.3323883   0.4179381  )
         8        O      tau(   8) = (  -0.1218176  -0.3323883   0.3857890  )
         9        O      tau(   9) = (  -0.3487655  -0.0606970   0.4179381  )
        10        O      tau(  10) = (   0.3487655   0.0606970   0.3857890  )
        11        O      tau(  11) = (   0.2269479  -0.2716913   0.4179381  )
        12        O      tau(  12) = (  -0.2269479   0.2716912   0.3857890  )
        13        H      tau(  13) = (  -0.5381668  -0.4032014   0.2796970  )
        14        H      tau(  14) = (   0.5381668   0.4032014   0.5240301  )
        15        H      tau(  15) = (   0.6182661  -0.2644654   0.2796970  )
        16        H      tau(  16) = (  -0.6182661   0.2644654   0.5240301  )
        17        H      tau(  17) = (  -0.0800993   0.6676668   0.2796970  )
        18        H      tau(  18) = (   0.0800993  -0.6676668   0.5240301  )
        19        H      tau(  19) = (  -0.4872704  -0.4817221   0.4326731  )
        20        H      tau(  20) = (   0.4872704   0.4817221   0.3710540  )
        21        H      tau(  21) = (   0.6608188  -0.1811275   0.4326731  )
        22        H      tau(  22) = (  -0.6608188   0.1811275   0.3710540  )
        23        H      tau(  23) = (  -0.1735484   0.6628496   0.4326731  )
        24        H      tau(  24) = (   0.1735484  -0.6628496   0.3710540  )
        25        H      tau(  25) = (   0.2703349  -0.1502973   0.4058822  )
        26        H      tau(  26) = (  -0.2703350   0.1502973   0.3978449  )
        27        H      tau(  27) = (  -0.0050062   0.3092656   0.4058822  )
        28        H      tau(  28) = (   0.0050062  -0.3092656   0.3978449  )
        29        H      tau(  29) = (  -0.2653287  -0.1589683   0.4058822  )
        30        H      tau(  30) = (   0.2653287   0.1589683   0.3978449  )
        31        H      tau(  31) = (   0.3178939  -0.3347969   0.3493534  )
        32        H      tau(  32) = (  -0.3178939   0.3347969   0.4543737  )
        33        H      tau(  33) = (   0.1309957   0.4427026   0.3493534  )
        34        H      tau(  34) = (  -0.1309956  -0.4427026   0.4543737  )
        35        H      tau(  35) = (  -0.4488895  -0.1079057   0.3493534  )
        36        H      tau(  36) = (   0.4488895   0.1079057   0.4543737  )

     number of k points=    60
                       cart. coord. in units 2pi/alat
        k(    1) = (   0.0000000   0.0000000   0.0000000), wk =   0.0058309
        k(    2) = (  -0.0856081  -0.0494258   0.1777433), wk =   0.0349854
        k(    3) = (  -0.1712162  -0.0988517   0.3554867), wk =   0.0349854
        k(    4) = (  -0.2568242  -0.1482775   0.5332300), wk =   0.0349854
        k(    5) = (  -0.0856081   0.0494258   0.3554867), wk =   0.0349854
        k(    6) = (  -0.1712162  -0.0000000   0.5332300), wk =   0.0349854
        k(    7) = (  -0.2568242  -0.0494258   0.7109734), wk =   0.0349854
        k(    8) = (   0.2568242   0.2471292  -0.3554867), wk =   0.0349854
        k(    9) = (   0.1712162   0.1977034  -0.1777433), wk =   0.0349854
        k(   10) = (   0.0856081   0.1482775   0.0000000), wk =   0.0349854
        k(   11) = (  -0.1712162   0.0988517   0.7109734), wk =   0.0349854
        k(   12) = (  -0.2568242   0.0494258   0.8887167), wk =   0.0349854
        k(   13) = (   0.2568242   0.3459809  -0.1777433), wk =   0.0349854
        k(   14) = (   0.1712162   0.2965551   0.0000000), wk =   0.0349854
        k(   15) = (  -0.2568242   0.1482775   1.0664600), wk =   0.0349854
        k(   16) = (   0.2568242   0.4448326   0.0000000), wk =   0.0349854
        k(   17) = (  -0.0000000   0.0000000   0.5332300), wk =   0.0116618
        k(   18) = (  -0.0856081  -0.0494258   0.7109734), wk =   0.0349854
        k(   19) = (  -0.1712162  -0.0988517   0.8887167), wk =   0.0349854
        k(   20) = (   0.3424323   0.1977034  -0.1777433), wk =   0.0349854
        k(   21) = (   0.2568242   0.1482775   0.0000000), wk =   0.0349854
        k(   22) = (   0.1712162   0.0988517   0.1777433), wk =   0.0349854
        k(   23) = (  -0.0856081   0.0494258   0.8887167), wk =   0.0349854
        k(   24) = (  -0.1712162   0.0000000   1.0664600), wk =   0.0349854
        k(   25) = (   0.3424323   0.2965551   0.0000000), wk =   0.0349854
        k(   26) = (   0.2568242   0.2471292   0.1777433), wk =   0.0349854
        k(   27) = (   0.1712162   0.1977034   0.3554867), wk =   0.0349854
        k(   28) = (  -0.1712162   0.0988517   1.2442034), wk =   0.0349854
        k(   29) = (   0.3424323   0.3954068   0.1777433), wk =   0.0349854
        k(   30) = (   0.2568242   0.3459809   0.3554867), wk =   0.0349854
        k(   31) = (   0.1712162   0.2965551   0.5332300), wk =   0.0349854
        k(   32) = (   0.3424323  -0.1977034  -0.8887167), wk =   0.0349854
        k(   33) = (   0.2568242  -0.2471292  -0.7109734), wk =   0.0349854
        k(   34) = (   0.2568242  -0.1482775  -0.5332300), wk =   0.0349854
        k(   35) = (  -0.0000000   0.0000000   1.0664600), wk =   0.0116618
        k(   36) = (  -0.0856081  -0.0494258   1.2442034), wk =   0.0349854
        k(   37) = (   0.4280404   0.2471292   0.1777433), wk =   0.0349854
        k(   38) = (   0.3424323   0.1977034   0.3554867), wk =   0.0349854
        k(   39) = (  -0.0856081   0.0494258   1.4219467), wk =   0.0349854
        k(   40) = (   0.4280404   0.3459809   0.3554867), wk =   0.0349854
        k(   41) = (   0.3424323   0.2965551   0.5332300), wk =   0.0349854
        k(   42) = (   0.4280404  -0.2471292  -0.7109734), wk =   0.0349854
        k(   43) = (  -0.0000000   0.0000000   1.5996900), wk =   0.0116618
        k(   44) = (   0.5136485   0.2965551   0.5332300), wk =   0.0349854
        k(   45) = (  -0.1712162   0.0000000  -0.5332300), wk =   0.0349854
        k(   46) = (  -0.2568242   0.0494258  -0.7109734), wk =   0.0349854
        k(   47) = (   0.2568242  -0.2471292   0.3554867), wk =   0.0349854
        k(   48) = (   0.1712162  -0.1977034   0.1777433), wk =   0.0349854
        k(   49) = (  -0.2568242  -0.0494258  -0.8887167), wk =   0.0349854
        k(   50) = (   0.2568242  -0.3459809   0.1777433), wk =   0.0349854
        k(   51) = (  -0.1712162   0.0000000  -1.0664600), wk =   0.0349854
        k(   52) = (   0.3424323  -0.2965551  -0.0000000), wk =   0.0349854
        k(   53) = (   0.2568242  -0.2471292  -0.1777433), wk =   0.0349854
        k(   54) = (   0.1712162  -0.1977034  -0.3554867), wk =   0.0349854
        k(   55) = (   0.3424323  -0.3954068  -0.1777433), wk =   0.0349854
        k(   56) = (   0.2568242  -0.3459809  -0.3554867), wk =   0.0349854
        k(   57) = (   0.1712162  -0.2965551  -0.5332300), wk =   0.0349854
        k(   58) = (   0.2568242   0.2471292   0.7109734), wk =   0.0349854
        k(   59) = (   0.4280404  -0.3459809  -0.3554867), wk =   0.0349854
        k(   60) = (   0.3424323  -0.2965551  -0.5332300), wk =   0.0349854

     Dense  grid:    24773 G-vectors     FFT dimensions: (  45,  45,  45)

     Estimated max dynamical RAM per process >       4.50 MB

     Estimated total dynamical RAM >     534.01 MB

     Initial potential from superposition of free atoms

     starting charge      95.9998, renormalised to      96.0000

     negative rho (up, down):  7.718E-04 0.000E+00
     Starting wfcs are   72 randomized atomic wfcs

     total cpu time spent up to now is        0.6 secs

     per-process dynamical memory:    10.4 Mb

     Self-consistent Calculation

     iteration #  1     ecut=    20.00 Ry     beta= 0.70
     Davidson diagonalization with overlap
     ethr =  1.00E-02,  avg # of iterations =  2.0

     negative rho (up, down):  8.258E-03 0.000E+00

     total cpu time spent up to now is        1.2 secs

     total energy              =    -411.46066026 Ry
     estimated scf accuracy    <       2.93566407 Ry

     iteration #  2     ecut=    20.00 Ry     beta= 0.70
     Davidson diagonalization with overlap
     ethr =  3.06E-03,  avg # of iterations =  2.0

     negative rho (up, down):  6.316E-03 0.000E+00

     total cpu time spent up to now is        1.7 secs

     total energy              =    -412.32985933 Ry
     estimated scf accuracy    <       1.56847341 Ry

     iteration #  3     ecut=    20.00 Ry     beta= 0.70
     Davidson diagonalization with overlap
     ethr =  1.63E-03,  avg # of iterations =  2.0

     negative rho (up, down):  8.265E-03 0.000E+00

     total cpu time spent up to now is        2.2 secs

     total energy              =    -412.55733713 Ry
     estimated scf accuracy    <       0.02970087 Ry

     iteration #  4     ecut=    20.00 Ry     beta= 0.70
     Davidson diagonalization with overlap
     ethr =  3.09E-05,  avg # of iterations =  3.0

     negative rho (up, down):  8.108E-03 0.000E+00

     total cpu time spent up to now is        2.8 secs

     total energy              =    -412.56682403 Ry
     estimated scf accuracy    <       0.02024306 Ry

     iteration #  5     ecut=    20.00 Ry     beta= 0.70
     Davidson diagonalization with overlap
     ethr =  2.11E-05,  avg # of iterations =  1.0

     negative rho (up, down):  8.160E-03 0.000E+00

     total cpu time spent up to now is        3.3 secs

     total energy              =    -412.56744853 Ry
     estimated scf accuracy    <       0.00353808 Ry

     iteration #  6     ecut=    20.00 Ry     beta= 0.70
     Davidson diagonalization with overlap
     ethr =  3.69E-06,  avg # of iterations =  2.0

     negative rho (up, down):  8.147E-03 0.000E+00

     total cpu time spent up to now is        3.7 secs

     total energy              =    -412.56723509 Ry
     estimated scf accuracy    <       0.00122400 Ry

     iteration #  7     ecut=    20.00 Ry     beta= 0.70
     Davidson diagonalization with overlap
     ethr =  1.28E-06,  avg # of iterations =  2.0

     negative rho (up, down):  8.115E-03 0.000E+00

     total cpu time spent up to now is        4.2 secs

     total energy              =    -412.56744866 Ry
     estimated scf accuracy    <       0.00001614 Ry

     iteration #  8     ecut=    20.00 Ry     beta= 0.70
     Davidson diagonalization with overlap
     ethr =  1.68E-08,  avg # of iterations =  2.7

     negative rho (up, down):  8.105E-03 0.000E+00

     total cpu time spent up to now is        4.7 secs

     total energy              =    -412.56745550 Ry
     estimated scf accuracy    <       0.00000024 Ry

     iteration #  9     ecut=    20.00 Ry     beta= 0.70
     Davidson diagonalization with overlap
     ethr =  2.53E-10,  avg # of iterations =  4.1

     negative rho (up, down):  8.100E-03 0.000E+00

     total cpu time spent up to now is        5.5 secs

     total energy              =    -412.56745499 Ry
     estimated scf accuracy    <       0.00000295 Ry

     iteration # 10     ecut=    20.00 Ry     beta= 0.70
     Davidson diagonalization with overlap
     ethr =  2.53E-10,  avg # of iterations =  3.0

     negative rho (up, down):  8.098E-03 0.000E+00

     total cpu time spent up to now is        6.1 secs

     total energy              =    -412.56745531 Ry
     estimated scf accuracy    <       0.00000014 Ry

     iteration # 11     ecut=    20.00 Ry     beta= 0.70
     Davidson diagonalization with overlap
     ethr =  1.45E-10,  avg # of iterations =  2.0

     negative rho (up, down):  8.097E-03 0.000E+00

     total cpu time spent up to now is        6.6 secs

     End of self-consistent calculation

          k = 0.0000 0.0000 0.0000 (  3119 PWs)   bands (ev):

   -21.1031 -20.6478 -20.6478 -20.4282 -20.4282 -20.4007 -20.4007 -20.3877
   -20.3857 -20.0887 -20.0887 -19.7769  -8.1839  -7.9886  -7.9330  -7.9330
    -7.8451  -7.8451  -7.4552  -7.2797  -7.2797  -7.0568  -7.0568  -6.9249
    -6.8607  -6.0008  -6.0008  -5.4023  -5.4023  -5.3236  -5.3236  -5.0435
    -4.8374  -4.1959  -4.1959  -3.5210  -2.8395  -2.8395  -2.7560  -2.6537
    -2.6297  -2.6297  -2.4678  -2.4678  -2.4519  -2.4405  -2.3981  -2.3981

          k =-0.0856-0.0494 0.1777 (  3128 PWs)   bands (ev):

   -21.0800 -20.6653 -20.6432 -20.4980 -20.4899 -20.4442 -20.3639 -20.3345
   -20.3107 -20.0908 -20.0723 -19.7961  -8.1681  -8.0159  -7.9708  -7.9409
    -7.8317  -7.7918  -7.4653  -7.2820  -7.2677  -7.0623  -7.0123  -6.9404
    -6.8164  -6.0496  -5.9960  -5.5983  -5.3756  -5.3518  -5.1457  -5.0264
    -4.8736  -4.1977  -4.1699  -3.5794  -2.8892  -2.8668  -2.7610  -2.6841
    -2.6454  -2.6251  -2.5401  -2.5034  -2.4572  -2.4178  -2.3872  -2.3620

          k =-0.1712-0.0989 0.3555 (  3114 PWs)   bands (ev):

   -21.0094 -20.6977 -20.6369 -20.5993 -20.5573 -20.4849 -20.3236 -20.2799
   -20.2102 -20.0933 -20.0455 -19.8517  -8.1122  -8.0621  -7.9741  -7.9185
    -7.8149  -7.7603  -7.4346  -7.2445  -7.2325  -7.0932  -6.9292  -6.9187
    -6.6811  -6.1786  -6.0108  -5.7763  -5.4324  -5.2634  -5.1714  -4.9340
    -4.7947  -4.1927  -4.1131  -3.7075  -2.9985  -2.9001  -2.7778  -2.7296
    -2.6688  -2.6326  -2.5843  -2.5258  -2.4690  -2.3959  -2.3634  -2.3081

          k =-0.2568-0.1483 0.5332 (  3089 PWs)   bands (ev):

   -20.9014 -20.7764 -20.6681 -20.6482 -20.5598 -20.5253 -20.2875 -20.2649
   -20.1186 -20.0908 -20.0126 -19.9347  -8.0986  -8.0446  -7.9638  -7.9203
    -7.8192  -7.7552  -7.3823  -7.2333  -7.2013  -7.0977  -6.8690  -6.8583
    -6.5275  -6.3159  -6.0299  -5.8692  -5.4297  -5.3074  -5.1444  -4.9638
    -4.5190  -4.2656  -4.0659  -3.8257  -3.0659  -2.8898  -2.7807  -2.7574
    -2.6890  -2.6683  -2.5712  -2.5276  -2.4987  -2.3717  -2.3425  -2.2652

          k =-0.0856 0.0494 0.3555 (  3127 PWs)   bands (ev):

   -21.0267 -20.6786 -20.6520 -20.5493 -20.5434 -20.5039 -20.3134 -20.2886
   -20.2682 -20.0784 -20.0570 -19.8364  -8.1188  -8.0518  -7.9973  -7.9351
    -7.8054  -7.7563  -7.4328  -7.3008  -7.2271  -7.0453  -6.9759  -6.9324
    -6.6923  -6.1268  -6.0753  -5.6628  -5.4571  -5.2810  -5.0915  -4.9922
    -4.9404  -4.1604  -4.1235  -3.6890  -2.9793  -2.9344  -2.7699  -2.7256
    -2.6457  -2.6385  -2.6131  -2.5146  -2.4615  -2.4008  -2.3805  -2.3340

          k =-0.1712-0.0000 0.5332 (  3098 PWs)   bands (ev):

   -20.9316 -20.7290 -20.6881 -20.6198 -20.5636 -20.5366 -20.2864 -20.2497
   -20.1766 -20.0655 -20.0361 -19.9086  -8.0978  -8.0304  -8.0035  -7.9027
    -7.8137  -7.7454  -7.3952  -7.2687  -7.2117  -7.0348  -6.9133  -6.8711
    -6.5480  -6.2624  -6.1134  -5.7509  -5.4739  -5.3506  -5.0570  -4.9738
    -4.6938  -4.1647  -4.0872  -3.8161  -3.0417  -2.9445  -2.7596  -2.7549
    -2.6849  -2.6511  -2.6107  -2.5141  -2.4842  -2.3783  -2.3570  -2.2786

          k =-0.2568-0.0494 0.7110 (  3091 PWs)   bands (ev):

   -20.8467 -20.8114 -20.7111 -20.6269 -20.5963 -20.5192 -20.2847 -20.2255
   -20.1186 -20.0779 -19.9974 -19.9736  -8.1140  -8.0369  -7.9481  -7.9102
    -7.8483  -7.7526  -7.3717  -7.2843  -7.2264  -7.0234  -6.8750  -6.8406
    -6.4748  -6.3660  -6.1029  -5.8062  -5.5684  -5.3122  -4.9999  -4.9663
    -4.4474  -4.3136  -4.0797  -3.8519  -3.0520  -2.9074  -2.7868  -2.7464
    -2.7002  -2.6586  -2.5876  -2.5214  -2.5001  -2.3818  -2.3437  -2.2487

          k = 0.2568 0.2471-0.3555 (  3095 PWs)   bands (ev):

   -20.9607 -20.7322 -20.6649 -20.6268 -20.5883 -20.4906 -20.3051 -20.2186
   -20.1661 -20.0997 -20.0353 -19.8945  -8.1031  -8.0871  -7.9329  -7.9038
    -7.8531  -7.7559  -7.4161  -7.3023  -7.1994  -7.0426  -6.9133  -6.8541
    -6.6443  -6.2591  -6.0286  -5.7977  -5.6171  -5.2233  -5.0355  -4.8828
    -4.5958  -4.2517  -4.1047  -3.7768  -2.9917  -2.8700  -2.7958  -2.7292
    -2.6832  -2.6388  -2.5540  -2.5374  -2.4697  -2.4013  -2.3564  -2.2611

          k = 0.1712 0.1977-0.1777 (  3113 PWs)   bands (ev):

   -21.0447 -20.7047 -20.6501 -20.5550 -20.5306 -20.4585 -20.3372 -20.2707
   -20.2441 -20.1011 -20.0591 -19.8267  -8.1521  -8.0679  -7.9395  -7.9187
    -7.8479  -7.7646  -7.4692  -7.3241  -7.1792  -7.0606  -6.9885  -6.9064
    -6.7974  -6.1417  -5.9572  -5.7204  -5.6076  -5.1887  -5.0436  -4.8934
    -4.7895  -4.2260  -4.1599  -3.6366  -2.8991  -2.8474  -2.7780  -2.7055
    -2.6609  -2.6260  -2.5437  -2.5014  -2.4447  -2.4427  -2.3776  -2.3086

          k = 0.0856 0.1483 0.0000 (  3127 PWs)   bands (ev):

   -21.0860 -20.6705 -20.6562 -20.4922 -20.4844 -20.4198 -20.3794 -20.3267
   -20.3040 -20.0911 -20.0819 -19.7925  -8.1803  -8.0361  -7.9507  -7.9120
    -7.8319  -7.8249  -7.4814  -7.3097  -7.2233  -7.0612  -7.0483  -6.9259
    -6.8619  -6.0362  -5.9827  -5.5957  -5.5654  -5.1722  -5.1440  -5.0256
    -4.7899  -4.2163  -4.1915  -3.5612  -2.8455  -2.8375  -2.7679  -2.6766
    -2.6514  -2.6393  -2.4912  -2.4780  -2.4590  -2.4528  -2.3872  -2.3656

          k =-0.1712 0.0989 0.7110 (  3102 PWs)   bands (ev):

   -20.8255 -20.7822 -20.7695 -20.6198 -20.6106 -20.5231 -20.2797 -20.1886
   -20.1438 -20.0542 -20.0156 -19.9795  -8.1268  -8.0270  -7.9705  -7.8951
    -7.8502  -7.7531  -7.3825  -7.2874  -7.2483  -6.9575  -6.9052  -6.8434
    -6.4386  -6.3562  -6.2232  -5.7157  -5.6326  -5.3490  -5.0603  -4.7957
    -4.5556  -4.2151  -4.1387  -3.8727  -3.0360  -2.9437  -2.7920  -2.7260
    -2.7227  -2.6604  -2.5977  -2.5267  -2.5055  -2.3865  -2.3482  -2.2498

          k =-0.2568 0.0494 0.8887 (  3096 PWs)   bands (ev):

   -20.8878 -20.7980 -20.7043 -20.6498 -20.5746 -20.5081 -20.2778 -20.1760
   -20.1625 -20.0729 -20.0210 -19.9523  -8.1277  -8.0700  -7.9331  -7.9106
    -7.8503  -7.7562  -7.4068  -7.3455  -7.2332  -6.9330  -6.9113  -6.8355
    -6.5402  -6.3882  -6.1467  -5.7583  -5.6818  -5.2331  -5.0346  -4.7343
    -4.4472  -4.3431  -4.1031  -3.8700  -2.9651  -2.8963  -2.7954  -2.7301
    -2.6733  -2.6359  -2.5639  -2.5540  -2.4815  -2.4049  -2.3542  -2.2466

          k = 0.2568 0.3460-0.1777 (  3098 PWs)   bands (ev):

   -20.9787 -20.7859 -20.6682 -20.6023 -20.5298 -20.4793 -20.2967 -20.2386
   -20.1809 -20.1064 -20.0274 -19.8834  -8.1327  -8.0997  -7.9421  -7.9272
    -7.8201  -7.7615  -7.4596  -7.3741  -7.1774  -6.9940  -6.9476  -6.8525
    -6.7216  -6.2962  -6.0259  -5.7713  -5.6581  -5.1733  -4.9908  -4.7021
    -4.6545  -4.3068  -4.1052  -3.7583  -2.8938  -2.8555  -2.7841  -2.7142
    -2.6495  -2.6228  -2.5393  -2.5219  -2.4513  -2.4478  -2.3458  -2.2666

          k = 0.1712 0.2966 0.0000 (  3120 PWs)   bands (ev):

   -21.0342 -20.7459 -20.6707 -20.5519 -20.5150 -20.4348 -20.3431 -20.2717
   -20.2241 -20.1014 -20.0516 -19.8378  -8.1642  -8.0838  -7.9672  -7.9215
    -7.7969  -7.7887  -7.5094  -7.3576  -7.1480  -7.0647  -6.9778  -6.8698
    -6.8533  -6.1713  -5.9983  -5.7641  -5.6135  -5.1781  -4.9952  -4.8432
    -4.6887  -4.2858  -4.1599  -3.6549  -2.8468  -2.8249  -2.7913  -2.7140
    -2.6646  -2.6340  -2.5208  -2.5057  -2.4687  -2.4476  -2.3469  -2.3222

          k =-0.2568 0.1483 1.0665 (  3093 PWs)   bands (ev):

   -20.9040 -20.8704 -20.6744 -20.6208 -20.5100 -20.5009 -20.2667 -20.2499
   -20.1389 -20.1244 -19.9673 -19.9473  -8.1387  -8.0930  -7.9614  -7.9194
    -7.7955  -7.7628  -7.4620  -7.3874  -7.1837  -7.0059  -6.8979  -6.8445
    -6.5276  -6.5023  -6.0951  -5.8253  -5.5580  -5.2414  -4.9813  -4.5940
    -4.5029  -4.4316  -4.0522  -3.8459  -2.8745  -2.8606  -2.7816  -2.7293
    -2.6446  -2.6032  -2.5675  -2.5349  -2.4537  -2.4333  -2.3362  -2.2568

          k = 0.2568 0.4448 0.0000 (  3092 PWs)   bands (ev):

   -20.9549 -20.8472 -20.6797 -20.5837 -20.5121 -20.4501 -20.3052 -20.2609
   -20.1656 -20.1213 -19.9854 -19.9052  -8.1464  -8.1032  -7.9602  -7.9290
    -7.7745  -7.7685  -7.4885  -7.3955  -7.1359  -7.0798  -6.9100  -6.8443
    -6.6624  -6.4011  -6.0459  -5.8240  -5.5279  -5.2468  -4.9048  -4.6493
    -4.5825  -4.4012  -4.0503  -3.7870  -2.8549  -2.8024  -2.7930  -2.7185
    -2.6510  -2.5949  -2.5407  -2.5019  -2.4797  -2.4419  -2.3097  -2.2865

          k =-0.0000 0.0000 0.5332 (  3113 PWs)   bands (ev):

   -20.9482 -20.7005 -20.7005 -20.5815 -20.5701 -20.5701 -20.2479 -20.2479
   -20.2222 -20.0570 -20.0570 -19.8956  -8.0565  -8.0565  -8.0448  -7.9037
    -7.7776  -7.7776  -7.4036  -7.2576  -7.2576  -6.9591  -6.9591  -6.8915
    -6.5699  -6.2127  -6.2127  -5.5702  -5.5702  -5.3641  -4.9394  -4.9394
    -4.9373  -4.1068  -4.1068  -3.8383  -2.9961  -2.9961  -2.7438  -2.7227
    -2.6923  -2.6533  -2.6533  -2.5027  -2.5027  -2.3891  -2.3891  -2.2829

          k =-0.0856-0.0494 0.7110 (  3095 PWs)   bands (ev):

   -20.8377 -20.7898 -20.7405 -20.6456 -20.5876 -20.5439 -20.2404 -20.1857
   -20.1577 -20.0543 -20.0300 -19.9769  -8.0893  -8.0586  -7.9719  -7.8878
    -7.8232  -7.7856  -7.3913  -7.2795  -7.2622  -6.9374  -6.8801  -6.8237
    -6.4646  -6.3601  -6.2619  -5.6608  -5.5472  -5.4466  -4.9397  -4.8468
    -4.6427  -4.1649  -4.1053  -3.9337  -3.0102  -2.9473  -2.7374  -2.7298
    -2.6993  -2.6547  -2.6282  -2.5183  -2.5114  -2.3901  -2.3715  -2.2489

          k =-0.1712-0.0989 0.8887 (  3095 PWs)   bands (ev):

   -20.9014 -20.7603 -20.7101 -20.6808 -20.5696 -20.5085 -20.2635 -20.1720
   -20.1390 -20.0928 -20.0341 -19.9506  -8.1077  -8.0745  -7.9339  -7.8941
    -7.8467  -7.7892  -7.4208  -7.3171  -7.2458  -6.9435  -6.8694  -6.8276
    -6.5861  -6.3342  -6.2366  -5.7502  -5.5840  -5.3291  -4.9518  -4.7660
    -4.4977  -4.2682  -4.1524  -3.8810  -2.9707  -2.8637  -2.7694  -2.7377
    -2.6764  -2.6333  -2.5754  -2.5387  -2.5004  -2.3995  -2.3675  -2.2395

          k = 0.3424 0.1977-0.1777 (  3100 PWs)   bands (ev):

   -20.9946 -20.7395 -20.7002 -20.6036 -20.5236 -20.4771 -20.2980 -20.2402
   -20.1770 -20.0957 -20.0569 -19.8716  -8.1406  -8.0797  -7.9554  -7.8826
    -7.8506  -7.7785  -7.4803  -7.3371  -7.1978  -6.9896  -6.9322  -6.8563
    -6.7641  -6.2181  -6.1244  -5.7269  -5.6175  -5.2281  -4.9562  -4.7663
    -4.6400  -4.2220  -4.2125  -3.7355  -2.8944  -2.8207  -2.7775  -2.7179
    -2.6598  -2.6103  -2.5504  -2.5083  -2.4649  -2.4486  -2.3692  -2.2665

          k = 0.2568 0.1483 0.0000 (  3105 PWs)   bands (ev):

   -21.0510 -20.7019 -20.6888 -20.5522 -20.4712 -20.4556 -20.3226 -20.3216
   -20.2295 -20.0902 -20.0699 -19.8223  -8.1665  -8.0648  -7.9733  -7.8907
    -7.8211  -7.7741  -7.4934  -7.3387  -7.1621  -7.0403  -7.0073  -6.8950
    -6.8460  -6.0994  -6.0075  -5.6911  -5.6396  -5.1494  -4.9885  -4.9410
    -4.6952  -4.2452  -4.1795  -3.6180  -2.8388  -2.8264  -2.7789  -2.7004
    -2.6750  -2.6110  -2.5202  -2.4825  -2.4557  -2.4408  -2.3625  -2.3204

          k = 0.1712 0.0989 0.1777 (  3119 PWs)   bands (ev):

   -21.0623 -20.6904 -20.6380 -20.5505 -20.4785 -20.4674 -20.3422 -20.3209
   -20.2649 -20.1009 -20.0583 -19.8111  -8.1593  -8.0388  -7.9930  -7.8889
    -7.8483  -7.7623  -7.4683  -7.3343  -7.1865  -7.0704  -7.0072  -6.9309
    -6.7989  -6.0667  -5.9824  -5.7083  -5.5068  -5.2475  -5.0873  -4.9480
    -4.8173  -4.2256  -4.1478  -3.6030  -2.8955  -2.8588  -2.7763  -2.7140
    -2.6462  -2.6151  -2.5430  -2.5227  -2.4347  -2.4009  -2.3814  -2.3460

          k =-0.0856 0.0494 0.8887 (  3090 PWs)   bands (ev):

   -20.8373 -20.8100 -20.7269 -20.7078 -20.5517 -20.5251 -20.2309 -20.1834
   -20.1170 -20.0620 -20.0190 -20.0121  -8.1056  -8.0743  -7.9331  -7.8790
    -7.8427  -7.8080  -7.4117  -7.3253  -7.2784  -6.8746  -6.8691  -6.8071
    -6.4659  -6.4502  -6.3205  -5.7563  -5.5415  -5.3889  -4.8829  -4.6784
    -4.5604  -4.2200  -4.1476  -3.9682  -2.9343  -2.8906  -2.7543  -2.7233
    -2.6422  -2.6320  -2.6081  -2.5336  -2.5053  -2.4041  -2.3791  -2.2279

          k =-0.1712 0.0000 1.0665 (  3095 PWs)   bands (ev):

   -20.9185 -20.8198 -20.7295 -20.6291 -20.5080 -20.4920 -20.2656 -20.2309
   -20.1396 -20.0859 -20.0186 -19.9394  -8.1266  -8.0961  -7.9544  -7.8912
    -7.8277  -7.7911  -7.4613  -7.3580  -7.2559  -6.9189  -6.8931  -6.8328
    -6.6206  -6.4047  -6.2206  -5.7850  -5.5375  -5.2940  -4.8348  -4.6854
    -4.5725  -4.2921  -4.1178  -3.8821  -2.8706  -2.8457  -2.7535  -2.7374
    -2.6428  -2.5982  -2.5664  -2.5323  -2.4791  -2.4388  -2.3659  -2.2419

          k = 0.3424 0.2966 0.0000 (  3100 PWs)   bands (ev):

   -20.9846 -20.7876 -20.7180 -20.5826 -20.4758 -20.4514 -20.3190 -20.2859
   -20.1716 -20.0899 -20.0291 -19.8790  -8.1496  -8.0898  -8.0000  -7.8832
    -7.8111  -7.7540  -7.5100  -7.3575  -7.1969  -7.0139  -6.9364  -6.8707
    -6.7387  -6.2687  -6.0922  -5.7884  -5.5682  -5.2240  -4.8912  -4.7606
    -4.6035  -4.2942  -4.1378  -3.7412  -2.8444  -2.8233  -2.7865  -2.7241
    -2.6876  -2.5768  -2.5418  -2.5086  -2.4682  -2.4203  -2.3551  -2.2786

          k = 0.2568 0.2471 0.1777 (  3104 PWs)   bands (ev):

   -21.0111 -20.7444 -20.6688 -20.5976 -20.4915 -20.4640 -20.3326 -20.2888
   -20.1870 -20.1074 -20.0329 -19.8536  -8.1484  -8.0544  -8.0357  -7.8691
    -7.8250  -7.7312  -7.5031  -7.3266  -7.1359  -7.0829  -6.9664  -6.9140
    -6.7360  -6.1436  -6.0118  -5.8314  -5.5819  -5.1990  -5.0771  -4.7943
    -4.6211  -4.2849  -4.1366  -3.6746  -2.9029  -2.8444  -2.8130  -2.7345
    -2.6763  -2.6056  -2.5549  -2.5077  -2.4468  -2.3725  -2.3550  -2.3132

          k = 0.1712 0.1977 0.3555 (  3111 PWs)   bands (ev):

   -20.9926 -20.7096 -20.6545 -20.5834 -20.5735 -20.5026 -20.3038 -20.2643
   -20.2201 -20.0834 -20.0368 -19.8643  -8.1259  -8.0531  -7.9947  -7.8931
    -7.8456  -7.7302  -7.4469  -7.2896  -7.1415  -7.1115  -6.9613  -6.9056
    -6.6580  -6.1220  -6.0513  -5.8211  -5.4942  -5.3354  -5.1019  -4.8673
    -4.7137  -4.2147  -4.1219  -3.7064  -3.0004  -2.8988  -2.7983  -2.7625
    -2.6540  -2.6462  -2.5601  -2.5488  -2.4563  -2.3705  -2.3478  -2.3190

          k =-0.1712 0.0989 1.2442 (  3094 PWs)   bands (ev):

   -20.9089 -20.8758 -20.7277 -20.5905 -20.4791 -20.4458 -20.3058 -20.2869
   -20.1479 -20.0949 -19.9632 -19.9458  -8.1382  -8.1071  -8.0023  -7.8874
    -7.7976  -7.7460  -7.4925  -7.3805  -7.2032  -7.0170  -6.9081  -6.8572
    -6.5410  -6.4819  -6.1419  -5.8074  -5.4996  -5.2813  -4.8579  -4.6703
    -4.5555  -4.3585  -4.0430  -3.8502  -2.8524  -2.8099  -2.7869  -2.7294
    -2.6609  -2.6090  -2.5294  -2.5059  -2.4712  -2.4349  -2.3379  -2.2701

          k = 0.3424 0.3954 0.1777 (  3094 PWs)   bands (ev):

   -20.9329 -20.8344 -20.6959 -20.6139 -20.4833 -20.4696 -20.3204 -20.2804
   -20.1308 -20.1094 -19.9897 -19.9147  -8.1445  -8.0798  -8.0359  -7.8756
    -7.7979  -7.7217  -7.5082  -7.3407  -7.1195  -7.1089  -6.9155  -6.8975
    -6.5845  -6.3500  -6.0482  -5.8582  -5.5693  -5.2473  -5.0210  -4.6546
    -4.4944  -4.3601  -4.0948  -3.7768  -2.8962  -2.8544  -2.8212  -2.7265
    -2.6868  -2.6267  -2.5253  -2.5039  -2.4496  -2.3967  -2.3283  -2.2801

          k = 0.2568 0.3460 0.3555 (  3103 PWs)   bands (ev):

   -20.9297 -20.7650 -20.6771 -20.6366 -20.5763 -20.4904 -20.3144 -20.2123
   -20.1813 -20.0712 -20.0186 -19.9114  -8.1515  -8.0415  -8.0046  -7.8918
    -7.8422  -7.7164  -7.4795  -7.2660  -7.1721  -7.0593  -6.9441  -6.8937
    -6.5562  -6.1931  -6.0926  -5.8631  -5.6149  -5.3001  -5.1182  -4.7080
    -4.4999  -4.2896  -4.1675  -3.7496  -3.0072  -2.8733  -2.8664  -2.7699
    -2.6817  -2.6466  -2.5516  -2.5216  -2.4685  -2.3659  -2.3372  -2.2790

          k = 0.1712 0.2966 0.5332 (  3100 PWs)   bands (ev):

   -20.8872 -20.7664 -20.6950 -20.6518 -20.5604 -20.5329 -20.2817 -20.2643
   -20.1315 -20.0720 -20.0089 -19.9399  -8.1375  -8.0026  -7.9697  -7.9227
    -7.8523  -7.7252  -7.4040  -7.2501  -7.1725  -7.0954  -6.9025  -6.8685
    -6.4789  -6.2728  -6.0607  -5.8872  -5.4779  -5.4554  -5.0632  -4.8892
    -4.4835  -4.2845  -4.1227  -3.7948  -3.0765  -2.9038  -2.8299  -2.7858
    -2.6960  -2.6574  -2.5700  -2.5198  -2.4927  -2.3592  -2.3378  -2.2748

          k = 0.3424-0.1977-0.8887 (  3090 PWs)   bands (ev):

   -20.8540 -20.8418 -20.6858 -20.6549 -20.5750 -20.4847 -20.3182 -20.2028
   -20.1532 -20.0595 -20.0068 -19.9447  -8.1607  -8.0520  -7.9836  -7.8964
    -7.8318  -7.7073  -7.4514  -7.3032  -7.1863  -6.9982  -6.9384  -6.8822
    -6.4076  -6.3961  -6.0569  -5.8502  -5.7111  -5.2775  -5.0834  -4.6298
    -4.4271  -4.3477  -4.1516  -3.7933  -2.9868  -2.9095  -2.8531  -2.7511
    -2.7030  -2.6337  -2.5290  -2.5088  -2.4643  -2.3818  -2.3275  -2.2558

          k = 0.2568-0.2471-0.7110 (  3086 PWs)   bands (ev):

   -20.8221 -20.7881 -20.7485 -20.6446 -20.5958 -20.5164 -20.3014 -20.2154
   -20.1209 -20.0714 -19.9928 -19.9681  -8.1571  -7.9919  -7.9401  -7.9347
    -7.8604  -7.7048  -7.4093  -7.2554  -7.1968  -7.0222  -6.9161  -6.8726
    -6.3964  -6.2371  -6.1743  -5.8367  -5.6381  -5.4353  -5.0390  -4.7372
    -4.4144  -4.3142  -4.1768  -3.7804  -3.0719  -2.9156  -2.8594  -2.7718
    -2.7256  -2.6373  -2.5328  -2.5193  -2.4958  -2.3543  -2.3232  -2.2508

          k = 0.2568-0.1483-0.5332 (  3108 PWs)   bands (ev):

   -20.9018 -20.7221 -20.7142 -20.6508 -20.5555 -20.5499 -20.2843 -20.2423
   -20.1720 -20.0495 -20.0264 -19.9250  -8.1498  -8.0202  -7.9677  -7.9074
    -7.8745  -7.7081  -7.3888  -7.3029  -7.1517  -7.0712  -6.9412  -6.8798
    -6.4908  -6.2015  -6.1032  -5.8469  -5.5336  -5.5060  -4.9541  -4.8865
    -4.6095  -4.1757  -4.1674  -3.7772  -3.0808  -2.9445  -2.8294  -2.7900
    -2.7175  -2.6370  -2.5693  -2.5262  -2.4810  -2.3703  -2.3390  -2.2775

          k =-0.0000 0.0000 1.0665 (  3096 PWs)   bands (ev):

   -20.8494 -20.8494 -20.7889 -20.6383 -20.4938 -20.4938 -20.2461 -20.2461
   -20.1251 -20.0215 -20.0124 -20.0124  -8.1045  -8.1045  -7.9676  -7.8563
    -7.8563  -7.8041  -7.4595  -7.3258  -7.3258  -6.8716  -6.8716  -6.8426
    -6.4747  -6.4258  -6.4258  -5.7944  -5.4174  -5.4174  -4.7330  -4.6466
    -4.6466  -4.1711  -4.1711  -3.9684  -2.8403  -2.8403  -2.7666  -2.7050
    -2.6364  -2.6364  -2.5301  -2.5246  -2.5246  -2.4021  -2.4021  -2.2426

          k =-0.0856-0.0494 1.2442 (  3111 PWs)   bands (ev):

   -20.9102 -20.8193 -20.8039 -20.5946 -20.4468 -20.4399 -20.3162 -20.3111
   -20.1444 -20.0377 -20.0114 -19.9428  -8.1301  -8.1121  -8.0386  -7.8613
    -7.8305  -7.7493  -7.5010  -7.3498  -7.2694  -6.9589  -6.9221  -6.8895
    -6.5663  -6.3616  -6.2877  -5.8016  -5.4738  -5.3174  -4.7921  -4.7430
    -4.5771  -4.2325  -4.1252  -3.8699  -2.8424  -2.8366  -2.7828  -2.7424
    -2.6750  -2.6356  -2.5268  -2.5152  -2.4631  -2.4122  -2.3766  -2.2743

          k = 0.4280 0.2471 0.1777 (  3101 PWs)   bands (ev):

   -20.9477 -20.7829 -20.7478 -20.6116 -20.4642 -20.4341 -20.3426 -20.3205
   -20.1206 -20.0917 -20.0120 -19.9007  -8.1347  -8.0966  -8.0499  -7.8539
    -7.8115  -7.7047  -7.5092  -7.3298  -7.1653  -7.0685  -6.9510  -6.9110
    -6.6041  -6.2502  -6.0953  -5.8235  -5.6151  -5.2676  -4.9517  -4.7623
    -4.4866  -4.3097  -4.1149  -3.7601  -2.8868  -2.8807  -2.8378  -2.7327
    -2.6891  -2.6591  -2.5095  -2.4694  -2.4445  -2.4112  -2.3406  -2.2927

          k = 0.3424 0.1977 0.3555 (  3106 PWs)   bands (ev):

   -20.9453 -20.7436 -20.6626 -20.6482 -20.5703 -20.4934 -20.3006 -20.2501
   -20.1888 -20.0617 -20.0260 -19.8955  -8.1532  -8.0724  -7.9931  -7.8699
    -7.8625  -7.6968  -7.4553  -7.2974  -7.1360  -7.0480  -7.0098  -6.9031
    -6.5696  -6.1587  -5.9625  -5.9118  -5.7013  -5.3676  -4.9682  -4.7786
    -4.5954  -4.2517  -4.1338  -3.7274  -3.0060  -2.9181  -2.8494  -2.7913
    -2.7009  -2.6346  -2.5379  -2.5024  -2.4437  -2.3893  -2.3298  -2.2938

          k =-0.0856 0.0494 1.4219 (  3122 PWs)   bands (ev):

   -20.8684 -20.8576 -20.7778 -20.6178 -20.4459 -20.4102 -20.3704 -20.3316
   -20.1049 -20.0637 -19.9983 -19.9385  -8.1385  -8.1049  -8.0828  -7.8547
    -7.8225  -7.7033  -7.5211  -7.3110  -7.2102  -7.0741  -6.9403  -6.9278
    -6.4603  -6.3710  -6.1848  -5.8351  -5.5496  -5.3702  -4.8996  -4.7545
    -4.4519  -4.2809  -4.1309  -3.8182  -2.8949  -2.8865  -2.8621  -2.7310
    -2.7032  -2.6960  -2.4986  -2.4839  -2.4438  -2.4155  -2.3584  -2.2903

          k = 0.4280 0.3460 0.3555 (  3104 PWs)   bands (ev):

   -20.8744 -20.7960 -20.7063 -20.6734 -20.5561 -20.4804 -20.3224 -20.2452
   -20.1305 -20.0482 -20.0247 -19.9275  -8.1793  -8.0471  -8.0278  -7.8708
    -7.8401  -7.6810  -7.4890  -7.2345  -7.1836  -7.0751  -6.9617  -6.9176
    -6.4251  -6.2442  -6.0230  -5.9115  -5.7293  -5.4532  -4.9362  -4.6968
    -4.4119  -4.3030  -4.2006  -3.7522  -3.0049  -2.9199  -2.8965  -2.7936
    -2.7391  -2.6347  -2.5031  -2.4752  -2.4472  -2.3891  -2.3425  -2.2662

          k = 0.3424 0.2966 0.5332 (  3092 PWs)   bands (ev):

   -20.8476 -20.7449 -20.7250 -20.6644 -20.6022 -20.5474 -20.2673 -20.2298
   -20.1506 -20.0655 -19.9988 -19.9448  -8.1877  -7.9883  -7.9521  -7.9199
    -7.8829  -7.6832  -7.4226  -7.2677  -7.1310  -7.0550  -6.9552  -6.9000
    -6.3706  -6.1405  -6.0844  -5.9277  -5.6921  -5.5802  -4.8822  -4.7613
    -4.4550  -4.2914  -4.1917  -3.7382  -3.0920  -2.9278  -2.8895  -2.8126
    -2.7626  -2.6034  -2.5417  -2.4938  -2.4646  -2.3518  -2.3384  -2.2510

          k = 0.4280-0.2471-0.7110 (  3099 PWs)   bands (ev):

   -20.7960 -20.7695 -20.7476 -20.6553 -20.6342 -20.5484 -20.2758 -20.1944
   -20.1421 -20.0867 -19.9890 -19.9516  -8.2053  -7.9848  -7.9547  -7.9228
    -7.8891  -7.6769  -7.4334  -7.2782  -7.1398  -7.0087  -6.9697  -6.9246
    -6.2626  -6.2166  -6.0529  -5.8966  -5.8268  -5.6204  -4.8585  -4.6832
    -4.4138  -4.3508  -4.2075  -3.7328  -3.1029  -2.9349  -2.9104  -2.8141
    -2.7985  -2.5938  -2.5337  -2.4774  -2.4655  -2.3615  -2.3351  -2.2482

          k =-0.0000 0.0000 1.5997 (  3099 PWs)   bands (ev):

   -20.8260 -20.7845 -20.7845 -20.6742 -20.5136 -20.5136 -20.2894 -20.2894
   -20.0680 -20.0680 -20.0398 -19.9310  -8.1916  -8.0379  -8.0379  -7.8491
    -7.8491  -7.6696  -7.4914  -7.1712  -7.1651  -7.1651  -6.9434  -6.9434
    -6.3260  -6.1789  -6.1789  -5.8734  -5.6330  -5.6330  -4.7910  -4.7910
    -4.2932  -4.2848  -4.2848  -3.7453  -3.0036  -2.9215  -2.9215  -2.7767
    -2.7767  -2.6364  -2.4593  -2.4499  -2.4499  -2.3732  -2.3732  -2.2586

          k = 0.5136 0.2966 0.5332 (  3089 PWs)   bands (ev):

   -20.8014 -20.7393 -20.7295 -20.6711 -20.6438 -20.5850 -20.2371 -20.1939
   -20.1574 -20.0989 -19.9853 -19.9431  -8.2188  -7.9755  -7.9599  -7.9031
    -7.8904  -7.6585  -7.4428  -7.2705  -7.0855  -7.0149  -6.9988  -6.9439
    -6.2334  -6.1026  -5.9802  -5.9510  -5.8929  -5.7475  -4.7456  -4.6842
    -4.4468  -4.3514  -4.1967  -3.7109  -3.1103  -2.9369  -2.9235  -2.8335
    -2.8152  -2.5781  -2.5223  -2.4554  -2.4458  -2.3620  -2.3483  -2.2340

          k =-0.1712 0.0000-0.5332 (  3098 PWs)   bands (ev):

   -20.9319 -20.7309 -20.6838 -20.6245 -20.5593 -20.5387 -20.2893 -20.2439
   -20.1801 -20.0625 -20.0380 -19.9081  -8.0953  -8.0467  -7.9942  -7.9025
    -7.8143  -7.7454  -7.3847  -7.2775  -7.2121  -7.0394  -6.9081  -6.8733
    -6.5515  -6.2497  -6.1137  -5.7511  -5.4535  -5.3679  -5.0977  -4.9059
    -4.7313  -4.1561  -4.0910  -3.8154  -3.0434  -2.9488  -2.7611  -2.7521
    -2.6873  -2.6584  -2.5959  -2.5206  -2.4843  -2.3760  -2.3611  -2.2759

          k =-0.2568 0.0494-0.7110 (  3091 PWs)   bands (ev):

   -20.8466 -20.8116 -20.7125 -20.6270 -20.5938 -20.5201 -20.2856 -20.2245
   -20.1217 -20.0752 -19.9949 -19.9758  -8.1155  -8.0285  -7.9526  -7.9240
    -7.8326  -7.7570  -7.3882  -7.2509  -7.2330  -7.0316  -6.8743  -6.8396
    -6.4743  -6.3309  -6.1543  -5.8033  -5.4808  -5.3691  -5.1220  -4.8490
    -4.4682  -4.2871  -4.1080  -3.8466  -3.0538  -2.8959  -2.7933  -2.7400
    -2.7092  -2.6661  -2.5747  -2.5240  -2.5150  -2.3727  -2.3420  -2.2536

          k = 0.2568-0.2471 0.3555 (  3095 PWs)   bands (ev):

   -20.9604 -20.7305 -20.6747 -20.6189 -20.5874 -20.4913 -20.3051 -20.2249
   -20.1557 -20.1075 -20.0311 -19.8945  -8.1181  -8.0502  -7.9703  -7.8984
    -7.8305  -7.7554  -7.4504  -7.2709  -7.1754  -7.0696  -6.8970  -6.8785
    -6.6362  -6.2107  -6.1101  -5.7993  -5.5087  -5.2620  -5.1583  -4.8025
    -4.5699  -4.2571  -4.1469  -3.7623  -2.9973  -2.8511  -2.8070  -2.7277
    -2.6951  -2.6280  -2.5486  -2.5429  -2.4866  -2.3772  -2.3545  -2.2726

          k = 0.1712-0.1977 0.1777 (  3113 PWs)   bands (ev):

   -21.0446 -20.7039 -20.6526 -20.5558 -20.5275 -20.4576 -20.3388 -20.2776
   -20.2361 -20.1038 -20.0575 -19.8267  -8.1560  -8.0466  -7.9901  -7.8672
    -7.8568  -7.7753  -7.4862  -7.2948  -7.1763  -7.0959  -6.9548  -6.9214
    -6.7903  -6.0847  -6.0408  -5.7441  -5.5182  -5.2068  -5.1333  -4.8571
    -4.7417  -4.2398  -4.1691  -3.6323  -2.9057  -2.8331  -2.7833  -2.6972
    -2.6701  -2.6192  -2.5437  -2.5225  -2.4530  -2.4187  -2.3662  -2.3233

          k =-0.2568-0.0494-0.8887 (  3096 PWs)   bands (ev):

   -20.8880 -20.7977 -20.7065 -20.6487 -20.5725 -20.5085 -20.2782 -20.1820
   -20.1543 -20.0793 -20.0126 -19.9551  -8.1327  -8.0566  -7.9456  -7.9141
    -7.8327  -7.7621  -7.4412  -7.3145  -7.2173  -6.9621  -6.8942  -6.8547
    -6.5278  -6.3397  -6.2077  -5.7865  -5.5881  -5.2793  -5.0957  -4.6554
    -4.4663  -4.3070  -4.1777  -3.8407  -2.9772  -2.8781  -2.8054  -2.7391
    -2.6722  -2.6337  -2.5575  -2.5544  -2.4968  -2.3895  -2.3487  -2.2455

          k = 0.2568-0.3460 0.1777 (  3098 PWs)   bands (ev):

   -20.9789 -20.7856 -20.6695 -20.6035 -20.5262 -20.4792 -20.2990 -20.2421
   -20.1716 -20.1144 -20.0229 -19.8837  -8.1442  -8.0722  -7.9855  -7.8995
    -7.8082  -7.7644  -7.4958  -7.3521  -7.1543  -7.0469  -6.9054  -6.8783
    -6.7131  -6.2554  -6.1021  -5.7963  -5.5377  -5.2499  -5.0341  -4.6603
    -4.5925  -4.3186  -4.1463  -3.7410  -2.8970  -2.8227  -2.8000  -2.7202
    -2.6603  -2.6085  -2.5625  -2.5247  -2.4590  -2.4134  -2.3425  -2.2804

          k =-0.1712 0.0000-1.0665 (  3095 PWs)   bands (ev):

   -20.9196 -20.8186 -20.7297 -20.6286 -20.5098 -20.4894 -20.2645 -20.2347
   -20.1325 -20.0924 -20.0156 -19.9406  -8.1234  -8.0891  -7.9570  -7.8991
    -7.8165  -7.7984  -7.4683  -7.3672  -7.2415  -6.9318  -6.8827  -6.8362
    -6.6246  -6.3791  -6.2465  -5.7825  -5.5116  -5.3162  -4.8644  -4.6242
    -4.5939  -4.2880  -4.1424  -3.8700  -2.8676  -2.8346  -2.7540  -2.7462
    -2.6346  -2.6114  -2.5640  -2.5303  -2.4788  -2.4363  -2.3680  -2.2455

          k = 0.3424-0.2966-0.0000 (  3100 PWs)   bands (ev):

   -20.9849 -20.7871 -20.7192 -20.5800 -20.4857 -20.4422 -20.3157 -20.2913
   -20.1691 -20.0906 -20.0291 -19.8792  -8.1482  -8.0998  -7.9933  -7.8927
    -7.7989  -7.7482  -7.5002  -7.3815  -7.1727  -7.0272  -6.9380  -6.8609
    -6.7399  -6.2635  -6.1089  -5.7705  -5.5842  -5.2139  -4.8889  -4.7848
    -4.5773  -4.3216  -4.1238  -3.7396  -2.8446  -2.8183  -2.7928  -2.7264
    -2.6658  -2.6131  -2.5252  -2.4913  -2.4694  -2.4463  -2.3406  -2.2882

          k = 0.2568-0.2471-0.1777 (  3104 PWs)   bands (ev):

   -21.0111 -20.7445 -20.6693 -20.5927 -20.5053 -20.4559 -20.3276 -20.2924
   -20.1876 -20.1054 -20.0353 -19.8528  -8.1401  -8.0925  -7.9954  -7.8918
    -7.8223  -7.7318  -7.4680  -7.3738  -7.1309  -7.0486  -7.0022  -6.8946
    -6.7389  -6.1812  -5.9525  -5.7839  -5.6846  -5.1322  -5.0679  -4.8044
    -4.6724  -4.2750  -4.1117  -3.6879  -2.8927  -2.8705  -2.7992  -2.7303
    -2.6589  -2.6373  -2.5204  -2.5066  -2.4357  -2.4208  -2.3408  -2.3155

          k = 0.1712-0.1977-0.3555 (  3111 PWs)   bands (ev):

   -20.9931 -20.7116 -20.6463 -20.5881 -20.5785 -20.4996 -20.3077 -20.2465
   -20.2343 -20.0811 -20.0396 -19.8637  -8.1134  -8.0886  -7.9552  -7.9075
    -7.8508  -7.7245  -7.4061  -7.3393  -7.1477  -7.0910  -6.9726  -6.8972
    -6.6589  -6.1675  -5.9854  -5.8237  -5.5619  -5.3188  -4.9850  -4.9034
    -4.7778  -4.2007  -4.1067  -3.7168  -2.9993  -2.9178  -2.7953  -2.7670
    -2.6627  -2.6264  -2.5629  -2.5393  -2.4534  -2.3957  -2.3531  -2.2937

          k = 0.3424-0.3954-0.1777 (  3094 PWs)   bands (ev):

   -20.9328 -20.8343 -20.6965 -20.6113 -20.4949 -20.4611 -20.3142 -20.2863
   -20.1304 -20.1073 -19.9922 -19.9135  -8.1301  -8.1094  -8.0164  -7.8884
    -7.8000  -7.7179  -7.4815  -7.3737  -7.1283  -7.0819  -6.9365  -6.8760
    -6.5879  -6.3661  -6.0309  -5.8288  -5.6365  -5.1961  -5.0166  -4.6722
    -4.5011  -4.3725  -4.0588  -3.7910  -2.8901  -2.8705  -2.8160  -2.7163
    -2.6717  -2.6534  -2.5180  -2.4842  -2.4461  -2.4316  -2.3155  -2.2924

          k = 0.2568-0.3460-0.3555 (  3103 PWs)   bands (ev):

   -20.9306 -20.7659 -20.6727 -20.6341 -20.5855 -20.4878 -20.3129 -20.2118
   -20.1829 -20.0674 -20.0249 -19.9104  -8.1415  -8.0770  -7.9601  -7.9000
    -7.8533  -7.7138  -7.4091  -7.3514  -7.1730  -7.0077  -6.9813  -6.8765
    -6.5688  -6.2610  -5.9800  -5.8253  -5.7628  -5.2675  -5.0224  -4.7498
    -4.5794  -4.2754  -4.1069  -3.7744  -2.9923  -2.9192  -2.8343  -2.7612
    -2.7012  -2.6271  -2.5486  -2.5123  -2.4596  -2.4091  -2.3311  -2.2634

          k = 0.1712-0.2966-0.5332 (  3100 PWs)   bands (ev):

   -20.8875 -20.7683 -20.6826 -20.6627 -20.5617 -20.5308 -20.2862 -20.2580
   -20.1335 -20.0698 -20.0118 -19.9384  -8.1328  -8.0316  -7.9441  -7.9199
    -7.8651  -7.7273  -7.3676  -7.2992  -7.1606  -7.0934  -6.8965  -6.8685
    -6.4933  -6.2756  -6.0302  -5.8930  -5.5508  -5.4004  -4.9936  -4.9285
    -4.5297  -4.2627  -4.1030  -3.8019  -3.0754  -2.9205  -2.8165  -2.7930
    -2.7018  -2.6493  -2.5501  -2.5429  -2.4813  -2.3745  -2.3368  -2.2627

          k = 0.2568 0.2471 0.7110 (  3086 PWs)   bands (ev):

   -20.8217 -20.7906 -20.7445 -20.6450 -20.5982 -20.5154 -20.3005 -20.2169
   -20.1158 -20.0761 -19.9948 -19.9660  -8.1596  -8.0024  -7.9379  -7.9126
    -7.8813  -7.7068  -7.3799  -7.2940  -7.1902  -7.0064  -6.9162  -6.8740
    -6.3806  -6.3195  -6.0758  -5.8485  -5.6887  -5.4084  -4.9826  -4.8053
    -4.3791  -4.3584  -4.1398  -3.7914  -3.0691  -2.9257  -2.8535  -2.7671
    -2.7334  -2.6279  -2.5529  -2.5077  -2.4786  -2.3722  -2.3227  -2.2505

          k = 0.4280-0.3460-0.3555 (  3104 PWs)   bands (ev):

   -20.8748 -20.7959 -20.7061 -20.6727 -20.5581 -20.4793 -20.3218 -20.2458
   -20.1291 -20.0469 -20.0268 -19.9270  -8.1811  -8.0587  -8.0105  -7.8748
    -7.8454  -7.6833  -7.4773  -7.2687  -7.1549  -7.0698  -6.9705  -6.9146
    -6.4225  -6.2621  -6.0121  -5.8718  -5.7844  -5.4425  -4.9218  -4.7008
    -4.4425  -4.2903  -4.1731  -3.7567  -3.0027  -2.9305  -2.8929  -2.7857
    -2.7542  -2.6359  -2.5079  -2.4546  -2.4486  -2.4033  -2.3302  -2.2696

          k = 0.3424-0.2966-0.5332 (  3092 PWs)   bands (ev):

   -20.8475 -20.7508 -20.7136 -20.6698 -20.6035 -20.5459 -20.2673 -20.2297
   -20.1494 -20.0663 -19.9994 -19.9436  -8.1895  -7.9974  -7.9392  -7.9106
    -7.9002  -7.6819  -7.4007  -7.2970  -7.1090  -7.0636  -6.9529  -6.9019
    -6.3724  -6.1772  -6.0228  -5.9356  -5.7269  -5.5664  -4.8387  -4.7919
    -4.4941  -4.2646  -4.1816  -3.7410  -3.0914  -2.9389  -2.8757  -2.8164
    -2.7667  -2.6004  -2.5477  -2.4859  -2.4729  -2.3679  -2.3226  -2.2495

     highest occupied level (ev):    -2.2279

!    total energy              =    -412.56745531 Ry
     estimated scf accuracy    <       0.00000002 Ry

     The total energy is the sum of the following terms:
     one-electron contribution =    -288.18212661 Ry
     hartree contribution      =     178.12706693 Ry
     xc contribution           =    -100.96780336 Ry
     ewald contribution        =    -201.54459227 Ry

     convergence has been achieved in  11 iterations

     Forces acting on atoms (cartesian axes, Ry/au):

     atom    1 type  2   force =    -0.03450588    0.06225320    0.03232279
     atom    2 type  2   force =     0.03450588   -0.06225320   -0.03232279
     atom    3 type  2   force =    -0.03665991   -0.06100957    0.03232279
     atom    4 type  2   force =     0.03665991    0.06100957   -0.03232279
     atom    5 type  2   force =     0.07116580   -0.00124363    0.03232279
     atom    6 type  2   force =    -0.07116580    0.00124363   -0.03232279
     atom    7 type  2   force =    -0.03317598    0.02441331   -0.01936381
     atom    8 type  2   force =     0.03317598   -0.02441331    0.01936381
     atom    9 type  2   force =    -0.00455456   -0.04093789   -0.01936381
     atom   10 type  2   force =     0.00455456    0.04093789    0.01936381
     atom   11 type  2   force =     0.03773054    0.01652458   -0.01936381
     atom   12 type  2   force =    -0.03773054   -0.01652458    0.01936381
     atom   13 type  1   force =     0.00248639   -0.02508013   -0.05142405
     atom   14 type  1   force =    -0.00248639    0.02508013    0.05142405
     atom   15 type  1   force =     0.02047683    0.01469334   -0.05142405
     atom   16 type  1   force =    -0.02047683   -0.01469334    0.05142405
     atom   17 type  1   force =    -0.02296322    0.01038679   -0.05142405
     atom   18 type  1   force =     0.02296322   -0.01038679    0.05142405
     atom   19 type  1   force =     0.02945196   -0.04494780    0.00988121
     atom   20 type  1   force =    -0.02945196    0.04494780   -0.00988121
     atom   21 type  1   force =     0.02419996    0.04798004    0.00988121
     atom   22 type  1   force =    -0.02419996   -0.04798004   -0.00988121
     atom   23 type  1   force =    -0.05365191   -0.00303224    0.00988121
     atom   24 type  1   force =     0.05365191    0.00303224   -0.00988121
     atom   25 type  1   force =    -0.01399536   -0.00290096    0.01276471
     atom   26 type  1   force =     0.01399536    0.00290096   -0.01276471
     atom   27 type  1   force =     0.00950999   -0.01066986    0.01276471
     atom   28 type  1   force =    -0.00950999    0.01066986   -0.01276471
     atom   29 type  1   force =     0.00448538    0.01357082    0.01276471
     atom   30 type  1   force =    -0.00448538   -0.01357082   -0.01276471
     atom   31 type  1   force =    -0.02905666   -0.00888092    0.01615064
     atom   32 type  1   force =     0.02905666    0.00888092   -0.01615064
     atom   33 type  1   force =     0.02221944   -0.02072335    0.01615064
     atom   34 type  1   force =    -0.02221944    0.02072335   -0.01615064
     atom   35 type  1   force =     0.00683723    0.02960427    0.01615064
     atom   36 type  1   force =    -0.00683723   -0.02960427   -0.01615064

     Total force =     0.309826     Total SCF correction =     0.000214


     Computing stress (Cartesian axis) and pressure

          total   stress  (Ry/bohr**3)                   (kbar)     P=     -443.67
  -0.00308973   0.00000000   0.00000000         -454.51        0.00        0.00
  -0.00000000  -0.00308973  -0.00000000           -0.00     -454.51       -0.00
   0.00000000  -0.00000000  -0.00286857            0.00       -0.00     -421.98


     Writing all to output data dir ./iceII_2/iceII_2.save/ :
     XML data file, charge density, pseudopotentials, collected wavefunctions

     init_run     :      0.38s CPU      0.42s WALL (       1 calls)
     electrons    :      5.69s CPU      5.95s WALL (       1 calls)
     forces       :      0.05s CPU      0.06s WALL (       1 calls)
     stress       :      0.34s CPU      0.36s WALL (       1 calls)

     Called by init_run:
     wfcinit      :      0.23s CPU      0.24s WALL (       1 calls)
     potinit      :      0.02s CPU      0.02s WALL (       1 calls)
     hinit0       :      0.12s CPU      0.13s WALL (       1 calls)

     Called by electrons:
     c_bands      :      4.98s CPU      5.19s WALL (      11 calls)
     sum_band     :      0.61s CPU      0.62s WALL (      11 calls)
     v_of_rho     :      0.06s CPU      0.07s WALL (      12 calls)
     newd         :      0.01s CPU      0.01s WALL (      12 calls)
     mix_rho      :      0.01s CPU      0.01s WALL (      11 calls)

     Called by c_bands:
     init_us_2    :      0.04s CPU      0.04s WALL (     200 calls)
     cegterg      :      4.84s CPU      5.01s WALL (      88 calls)

     Called by *egterg:
     cdiaghg      :      1.10s CPU      1.12s WALL (     295 calls)
     h_psi        :      3.32s CPU      3.45s WALL (     303 calls)
     s_psi        :      0.12s CPU      0.12s WALL (     303 calls)
     g_psi        :      0.01s CPU      0.01s WALL (     207 calls)

     Called by h_psi:
     h_psi:calbec :      0.16s CPU      0.17s WALL (     303 calls)
     vloc_psi     :      3.02s CPU      3.14s WALL (     303 calls)
     add_vuspsi   :      0.12s CPU      0.13s WALL (     303 calls)

     General routines
     calbec       :      0.23s CPU      0.24s WALL (     431 calls)
     fft          :      0.14s CPU      0.15s WALL (     140 calls)
     ffts         :      0.00s CPU      0.00s WALL (      11 calls)
     fftw         :      3.29s CPU      3.40s WALL (   30048 calls)

     Parallel routines

     PWSCF        :      6.68s CPU      7.29s WALL


   This run was terminated on:  14:56:43  19Mar2026            

=------------------------------------------------------------------------------=
   JOB DONE.
=------------------------------------------------------------------------------=
