
     Program PWSCF v.7.3.1 starts on 19Mar2026 at 15: 6: 2 

     This program is part of the open-source Quantum ESPRESSO suite
     for quantum simulation of materials; please cite
         "P. Giannozzi et al., J. Phys.:Condens. Matter 21 395502 (2009);
         "P. Giannozzi et al., J. Phys.:Condens. Matter 29 465901 (2017);
         "P. Giannozzi et al., J. Chem. Phys. 152 154105 (2020);
          URL http://www.quantum-espresso.org", 
     in publications or presentations arising from this work. More details at
     http://www.quantum-espresso.org/quote

     Parallel version (MPI), running on   128 processors

     MPI processes distributed on     1 nodes
     240789 MiB available memory on the printing compute node when the environment starts

     Waiting for input...
     Reading input from standard input

     Current dimensions of program PWSCF are:
     Max number of different atomic species (ntypx) = 10
     Max number of k-points (npk) =  40000
     Max angular momentum in pseudopotentials (lmaxx) =  4

     K-points division:     npool     =       8
     R & G space division:  proc/nbgrp/npool/nimage =      16
     Subspace diagonalization in iterative solution of the eigenvalue problem:
     a serial algorithm will be used


     Parallelization info
     --------------------
     sticks:   dense  smooth     PW     G-vecs:    dense   smooth      PW
     Min          78      78     27                 1547     1547     311
     Max          79      79     28                 1550     1550     312
     Sum        1253    1253    437                24773    24773    4981

     Using Slab Decomposition



     bravais-lattice index     =            5
     lattice parameter (alat)  =      14.7021  a.u.
     unit-cell volume          =    2053.1832 (a.u.)^3
     number of atoms/cell      =           36
     number of atomic types    =            2
     number of electrons       =        96.00
     number of Kohn-Sham states=           48
     kinetic-energy cutoff     =      20.0000  Ry
     charge density cutoff     =      80.0000  Ry
     scf convergence threshold =      1.0E-07
     mixing beta               =       0.7000
     number of iterations used =            8  plain     mixing
     Exchange-correlation=  SLA  PW   PBE  PBE
                           (   1   4   3   4   0   0   0)

     celldm(1)=  14.702068  celldm(2)=   0.000000  celldm(3)=   0.000000
     celldm(4)=  -0.392337  celldm(5)=   0.000000  celldm(6)=   0.000000

     crystal axes: (cart. coord. in units of alat)
               a(1) = (   0.834367  -0.481722   0.267909 )  
               a(2) = (   0.000000   0.963444   0.267909 )  
               a(3) = (  -0.834367  -0.481722   0.267909 )  

     reciprocal axes: (cart. coord. in units 2 pi/alat)
               b(1) = (  0.599257 -0.345981  1.244203 )  
               b(2) = ( -0.000000  0.691962  1.244203 )  
               b(3) = ( -0.599257 -0.345981  1.244203 )  


     PseudoPot. # 1 for H  read from file:
     ./H.pbe-van_ak.UPF
     MD5 check sum: 077eb6d537518a38cb46c6de387227b7
     Pseudo is Ultrasoft, Zval =  1.0
     Generated by new atomic code, or converted to UPF format
     Using radial grid of  615 points,  1 beta functions with: 
                l(1) =   0
     Q(r) pseudized with  8 coefficients,  rinner =    0.800

     PseudoPot. # 2 for O  read from file:
     ./O.pbe-van_ak.UPF
     MD5 check sum: 78c19812648e8988a0fe644b0f25305e
     Pseudo is Ultrasoft, Zval =  6.0
     Generated by new atomic code, or converted to UPF format
     Using radial grid of  737 points,  4 beta functions with: 
                l(1) =   0
                l(2) =   0
                l(3) =   1
                l(4) =   1
     Q(r) pseudized with  8 coefficients,  rinner =    0.800   0.800   0.800


     atomic species   valence    mass     pseudopotential
     H                 1.00     1.00800     H ( 1.00)
     O                 6.00    16.00000     O ( 1.00)

      6 Sym. Ops., with inversion, found



   Cartesian axes

     site n.     atom                  positions (alat units)
         1        O      tau(   1) = (  -0.4847673  -0.5197781   0.3083633  )
         2        O      tau(   2) = (   0.4847673   0.5197782   0.4953638  )
         3        O      tau(   3) = (   0.6925247  -0.1599317   0.3083633  )
         4        O      tau(   4) = (  -0.6925248   0.1599317   0.4953638  )
         5        O      tau(   5) = (  -0.2077574   0.6797099   0.3083633  )
         6        O      tau(   6) = (   0.2077574  -0.6797099   0.4953638  )
         7        O      tau(   7) = (   0.1218176   0.3323883   0.4179381  )
         8        O      tau(   8) = (  -0.1218176  -0.3323883   0.3857890  )
         9        O      tau(   9) = (  -0.3487655  -0.0606970   0.4179381  )
        10        O      tau(  10) = (   0.3487655   0.0606970   0.3857890  )
        11        O      tau(  11) = (   0.2269479  -0.2716913   0.4179381  )
        12        O      tau(  12) = (  -0.2269479   0.2716912   0.3857890  )
        13        H      tau(  13) = (  -0.5381668  -0.4032014   0.2796970  )
        14        H      tau(  14) = (   0.5381668   0.4032014   0.5240301  )
        15        H      tau(  15) = (   0.6182661  -0.2644654   0.2796970  )
        16        H      tau(  16) = (  -0.6182661   0.2644654   0.5240301  )
        17        H      tau(  17) = (  -0.0800993   0.6676668   0.2796970  )
        18        H      tau(  18) = (   0.0800993  -0.6676668   0.5240301  )
        19        H      tau(  19) = (  -0.4872704  -0.4817221   0.4326731  )
        20        H      tau(  20) = (   0.4872704   0.4817221   0.3710540  )
        21        H      tau(  21) = (   0.6608188  -0.1811275   0.4326731  )
        22        H      tau(  22) = (  -0.6608188   0.1811275   0.3710540  )
        23        H      tau(  23) = (  -0.1735484   0.6628496   0.4326731  )
        24        H      tau(  24) = (   0.1735484  -0.6628496   0.3710540  )
        25        H      tau(  25) = (   0.2703349  -0.1502973   0.4058822  )
        26        H      tau(  26) = (  -0.2703350   0.1502973   0.3978449  )
        27        H      tau(  27) = (  -0.0050062   0.3092656   0.4058822  )
        28        H      tau(  28) = (   0.0050062  -0.3092656   0.3978449  )
        29        H      tau(  29) = (  -0.2653287  -0.1589683   0.4058822  )
        30        H      tau(  30) = (   0.2653287   0.1589683   0.3978449  )
        31        H      tau(  31) = (   0.3178939  -0.3347969   0.3493534  )
        32        H      tau(  32) = (  -0.3178939   0.3347969   0.4543737  )
        33        H      tau(  33) = (   0.1309957   0.4427026   0.3493534  )
        34        H      tau(  34) = (  -0.1309956  -0.4427026   0.4543737  )
        35        H      tau(  35) = (  -0.4488895  -0.1079057   0.3493534  )
        36        H      tau(  36) = (   0.4488895   0.1079057   0.4543737  )

     number of k points=  1150

     Number of k-points >= 100: set verbosity='high' to print them.

     Dense  grid:    24773 G-vectors     FFT dimensions: (  45,  45,  45)

     Estimated max dynamical RAM per process >      23.73 MB

     Estimated total dynamical RAM >       2.92 GB

     Initial potential from superposition of free atoms

     starting charge      95.9998, renormalised to      96.0000

     negative rho (up, down):  7.718E-04 0.000E+00
     Starting wfcs are   72 randomized atomic wfcs

     total cpu time spent up to now is        4.2 secs

     per-process dynamical memory:    32.7 Mb

     Self-consistent Calculation

     iteration #  1     ecut=    20.00 Ry     beta= 0.70
     Davidson diagonalization with overlap
     ethr =  1.00E-02,  avg # of iterations =  2.0

     negative rho (up, down):  8.256E-03 0.000E+00

     total cpu time spent up to now is       12.8 secs

     total energy              =    -411.46044395 Ry
     estimated scf accuracy    <       2.93522102 Ry

     iteration #  2     ecut=    20.00 Ry     beta= 0.70
     Davidson diagonalization with overlap
     ethr =  3.06E-03,  avg # of iterations =  2.0

     negative rho (up, down):  6.314E-03 0.000E+00

     total cpu time spent up to now is       22.3 secs

     total energy              =    -412.32939256 Ry
     estimated scf accuracy    <       1.56802788 Ry

     iteration #  3     ecut=    20.00 Ry     beta= 0.70
     Davidson diagonalization with overlap
     ethr =  1.63E-03,  avg # of iterations =  2.0

     negative rho (up, down):  8.264E-03 0.000E+00

     total cpu time spent up to now is       31.5 secs

     total energy              =    -412.55683315 Ry
     estimated scf accuracy    <       0.02968714 Ry

     iteration #  4     ecut=    20.00 Ry     beta= 0.70
     Davidson diagonalization with overlap
     ethr =  3.09E-05,  avg # of iterations =  3.0

     negative rho (up, down):  8.108E-03 0.000E+00

     total cpu time spent up to now is       42.4 secs

     total energy              =    -412.56631506 Ry
     estimated scf accuracy    <       0.02022166 Ry

     iteration #  5     ecut=    20.00 Ry     beta= 0.70
     Davidson diagonalization with overlap
     ethr =  2.11E-05,  avg # of iterations =  1.0

     negative rho (up, down):  8.160E-03 0.000E+00

     total cpu time spent up to now is       48.9 secs

     total energy              =    -412.56693758 Ry
     estimated scf accuracy    <       0.00353684 Ry

     iteration #  6     ecut=    20.00 Ry     beta= 0.70
     Davidson diagonalization with overlap
     ethr =  3.68E-06,  avg # of iterations =  2.0

     negative rho (up, down):  8.147E-03 0.000E+00

     total cpu time spent up to now is       56.8 secs

     total energy              =    -412.56672333 Ry
     estimated scf accuracy    <       0.00122439 Ry

     iteration #  7     ecut=    20.00 Ry     beta= 0.70
     Davidson diagonalization with overlap
     ethr =  1.28E-06,  avg # of iterations =  2.0

     negative rho (up, down):  8.114E-03 0.000E+00

     total cpu time spent up to now is       65.6 secs

     total energy              =    -412.56693695 Ry
     estimated scf accuracy    <       0.00001616 Ry

     iteration #  8     ecut=    20.00 Ry     beta= 0.70
     Davidson diagonalization with overlap
     ethr =  1.68E-08,  avg # of iterations =  2.7

     negative rho (up, down):  8.105E-03 0.000E+00

     total cpu time spent up to now is       75.6 secs

     total energy              =    -412.56694379 Ry
     estimated scf accuracy    <       0.00000024 Ry

     iteration #  9     ecut=    20.00 Ry     beta= 0.70
     Davidson diagonalization with overlap
     ethr =  2.52E-10,  avg # of iterations =  4.1

     negative rho (up, down):  8.100E-03 0.000E+00

     total cpu time spent up to now is       89.0 secs

     total energy              =    -412.56694329 Ry
     estimated scf accuracy    <       0.00000294 Ry

     iteration # 10     ecut=    20.00 Ry     beta= 0.70
     Davidson diagonalization with overlap
     ethr =  2.52E-10,  avg # of iterations =  3.0

     negative rho (up, down):  8.097E-03 0.000E+00

     total cpu time spent up to now is      100.5 secs

     total energy              =    -412.56694360 Ry
     estimated scf accuracy    <       0.00000014 Ry

     iteration # 11     ecut=    20.00 Ry     beta= 0.70
     Davidson diagonalization with overlap
     ethr =  1.43E-10,  avg # of iterations =  2.0

     negative rho (up, down):  8.096E-03 0.000E+00

     total cpu time spent up to now is      108.4 secs

     End of self-consistent calculation

     Number of k-points >= 100: set verbosity='high' to print the bands.

     highest occupied level (ev):    -2.2208

!    total energy              =    -412.56694360 Ry
     estimated scf accuracy    <       0.00000002 Ry

     The total energy is the sum of the following terms:
     one-electron contribution =    -288.18104093 Ry
     hartree contribution      =     178.12634791 Ry
     xc contribution           =    -100.96765831 Ry
     ewald contribution        =    -201.54459227 Ry

     convergence has been achieved in  11 iterations

     Forces acting on atoms (cartesian axes, Ry/au):

     atom    1 type  2   force =    -0.03450654    0.06223282    0.03233355
     atom    2 type  2   force =     0.03450654   -0.06223282   -0.03233355
     atom    3 type  2   force =    -0.03664194   -0.06099995    0.03233355
     atom    4 type  2   force =     0.03664194    0.06099995   -0.03233355
     atom    5 type  2   force =     0.07114847   -0.00123287    0.03233355
     atom    6 type  2   force =    -0.07114847    0.00123287   -0.03233355
     atom    7 type  2   force =    -0.03317487    0.02442737   -0.01936615
     atom    8 type  2   force =     0.03317487   -0.02442737    0.01936615
     atom    9 type  2   force =    -0.00456729   -0.04094397   -0.01936615
     atom   10 type  2   force =     0.00456729    0.04094397    0.01936615
     atom   11 type  2   force =     0.03774216    0.01651660   -0.01936615
     atom   12 type  2   force =    -0.03774216   -0.01651660    0.01936615
     atom   13 type  1   force =     0.00249083   -0.02507746   -0.05141610
     atom   14 type  1   force =    -0.00249083    0.02507746    0.05141610
     atom   15 type  1   force =     0.02047230    0.01469585   -0.05141610
     atom   16 type  1   force =    -0.02047230   -0.01469585    0.05141610
     atom   17 type  1   force =    -0.02296313    0.01038161   -0.05141610
     atom   18 type  1   force =     0.02296313   -0.01038161    0.05141610
     atom   19 type  1   force =     0.02944991   -0.04493114    0.00986326
     atom   20 type  1   force =    -0.02944991    0.04493114   -0.00986326
     atom   21 type  1   force =     0.02418655    0.04796994    0.00986326
     atom   22 type  1   force =    -0.02418655   -0.04796994   -0.00986326
     atom   23 type  1   force =    -0.05363646   -0.00303880    0.00986326
     atom   24 type  1   force =     0.05363646    0.00303880   -0.00986326
     atom   25 type  1   force =    -0.01399803   -0.00289541    0.01276288
     atom   26 type  1   force =     0.01399803    0.00289541   -0.01276288
     atom   27 type  1   force =     0.00950651   -0.01067495    0.01276288
     atom   28 type  1   force =    -0.00950651    0.01067495   -0.01276288
     atom   29 type  1   force =     0.00449152    0.01357036    0.01276288
     atom   30 type  1   force =    -0.00449152   -0.01357036   -0.01276288
     atom   31 type  1   force =    -0.02906412   -0.00887452    0.01615757
     atom   32 type  1   force =     0.02906412    0.00887452   -0.01615757
     atom   33 type  1   force =     0.02221762   -0.02073301    0.01615757
     atom   34 type  1   force =    -0.02221762    0.02073301   -0.01615757
     atom   35 type  1   force =     0.00684650    0.02960753    0.01615757
     atom   36 type  1   force =    -0.00684650   -0.02960753   -0.01615757

     Total force =     0.309793     Total SCF correction =     0.000213


     Computing stress (Cartesian axis) and pressure

          total   stress  (Ry/bohr**3)                   (kbar)     P=     -443.81
  -0.00309074  -0.00000000  -0.00000000         -454.66       -0.00       -0.00
   0.00000000  -0.00309074  -0.00000000            0.00     -454.66       -0.00
   0.00000000  -0.00000000  -0.00286941            0.00       -0.00     -422.10


     Writing all to output data dir ./iceII_2/iceII_2.save/ :
     XML data file, charge density, pseudopotentials, collected wavefunctions

     init_run     :      3.86s CPU      3.98s WALL (       1 calls)
     electrons    :    100.25s CPU    104.23s WALL (       1 calls)
     forces       :      0.50s CPU      0.51s WALL (       1 calls)
     stress       :      6.04s CPU      6.05s WALL (       1 calls)

     Called by init_run:
     wfcinit      :      3.69s CPU      3.79s WALL (       1 calls)
     potinit      :      0.02s CPU      0.02s WALL (       1 calls)
     hinit0       :      0.12s CPU      0.13s WALL (       1 calls)

     Called by electrons:
     c_bands      :     89.80s CPU     93.56s WALL (      11 calls)
     sum_band     :     10.37s CPU     10.54s WALL (      11 calls)
     v_of_rho     :      0.05s CPU      0.06s WALL (      12 calls)
     newd         :      0.01s CPU      0.01s WALL (      12 calls)
     mix_rho      :      0.01s CPU      0.01s WALL (      11 calls)

     Called by c_bands:
     init_us_2    :      0.66s CPU      0.72s WALL (    3600 calls)
     cegterg      :     87.58s CPU     89.91s WALL (    1584 calls)

     Called by *egterg:
     cdiaghg      :     19.94s CPU     20.25s WALL (    5319 calls)
     h_psi        :     60.29s CPU     62.10s WALL (    5463 calls)
     s_psi        :      2.07s CPU      2.12s WALL (    5463 calls)
     g_psi        :      0.12s CPU      0.12s WALL (    3735 calls)

     Called by h_psi:
     h_psi:calbec :      2.85s CPU      2.89s WALL (    5463 calls)
     vloc_psi     :     55.01s CPU     56.72s WALL (    5463 calls)
     add_vuspsi   :      2.18s CPU      2.21s WALL (    5463 calls)

     General routines
     calbec       :      4.17s CPU      4.24s WALL (    7767 calls)
     fft          :      0.14s CPU      0.14s WALL (     140 calls)
     ffts         :      0.00s CPU      0.00s WALL (      11 calls)
     fftw         :     59.75s CPU     61.49s WALL (  540694 calls)

     Parallel routines

     PWSCF        :   1m55.91s CPU   2m 2.35s WALL


   This run was terminated on:  15: 8: 4  19Mar2026            

=------------------------------------------------------------------------------=
   JOB DONE.
=------------------------------------------------------------------------------=
