
     Program PWSCF v.7.3.1 starts on 19Mar2026 at 14:56: 7 

     This program is part of the open-source Quantum ESPRESSO suite
     for quantum simulation of materials; please cite
         "P. Giannozzi et al., J. Phys.:Condens. Matter 21 395502 (2009);
         "P. Giannozzi et al., J. Phys.:Condens. Matter 29 465901 (2017);
         "P. Giannozzi et al., J. Chem. Phys. 152 154105 (2020);
          URL http://www.quantum-espresso.org", 
     in publications or presentations arising from this work. More details at
     http://www.quantum-espresso.org/quote

     Parallel version (MPI), running on   128 processors

     MPI processes distributed on     1 nodes
     243449 MiB available memory on the printing compute node when the environment starts

     Waiting for input...
     Reading input from standard input

     Current dimensions of program PWSCF are:
     Max number of different atomic species (ntypx) = 10
     Max number of k-points (npk) =  40000
     Max angular momentum in pseudopotentials (lmaxx) =  4

     K-points division:     npool     =       4
     R & G space division:  proc/nbgrp/npool/nimage =      32
     Subspace diagonalization in iterative solution of the eigenvalue problem:
     a serial algorithm will be used


     Parallelization info
     --------------------
     sticks:   dense  smooth     PW     G-vecs:    dense   smooth      PW
     Min          39      39     12                  773      773     136
     Max          40      40     13                  776      776     138
     Sum        1253    1253    395                24773    24773    4363

     Using Slab Decomposition



     bravais-lattice index     =            5
     lattice parameter (alat)  =      14.7021  a.u.
     unit-cell volume          =    2053.1832 (a.u.)^3
     number of atoms/cell      =           36
     number of atomic types    =            2
     number of electrons       =        96.00
     number of Kohn-Sham states=           48
     kinetic-energy cutoff     =      20.0000  Ry
     charge density cutoff     =      80.0000  Ry
     scf convergence threshold =      1.0E-07
     mixing beta               =       0.7000
     number of iterations used =            8  plain     mixing
     Exchange-correlation=  SLA  PW   PBE  PBE
                           (   1   4   3   4   0   0   0)

     celldm(1)=  14.702068  celldm(2)=   0.000000  celldm(3)=   0.000000
     celldm(4)=  -0.392337  celldm(5)=   0.000000  celldm(6)=   0.000000

     crystal axes: (cart. coord. in units of alat)
               a(1) = (   0.834367  -0.481722   0.267909 )  
               a(2) = (   0.000000   0.963444   0.267909 )  
               a(3) = (  -0.834367  -0.481722   0.267909 )  

     reciprocal axes: (cart. coord. in units 2 pi/alat)
               b(1) = (  0.599257 -0.345981  1.244203 )  
               b(2) = ( -0.000000  0.691962  1.244203 )  
               b(3) = ( -0.599257 -0.345981  1.244203 )  


     PseudoPot. # 1 for H  read from file:
     ./H.pbe-van_ak.UPF
     MD5 check sum: 077eb6d537518a38cb46c6de387227b7
     Pseudo is Ultrasoft, Zval =  1.0
     Generated by new atomic code, or converted to UPF format
     Using radial grid of  615 points,  1 beta functions with: 
                l(1) =   0
     Q(r) pseudized with  8 coefficients,  rinner =    0.800

     PseudoPot. # 2 for O  read from file:
     ./O.pbe-van_ak.UPF
     MD5 check sum: 78c19812648e8988a0fe644b0f25305e
     Pseudo is Ultrasoft, Zval =  6.0
     Generated by new atomic code, or converted to UPF format
     Using radial grid of  737 points,  4 beta functions with: 
                l(1) =   0
                l(2) =   0
                l(3) =   1
                l(4) =   1
     Q(r) pseudized with  8 coefficients,  rinner =    0.800   0.800   0.800


     atomic species   valence    mass     pseudopotential
     H                 1.00     1.00800     H ( 1.00)
     O                 6.00    16.00000     O ( 1.00)

      6 Sym. Ops., with inversion, found



   Cartesian axes

     site n.     atom                  positions (alat units)
         1        O      tau(   1) = (  -0.4847673  -0.5197781   0.3083633  )
         2        O      tau(   2) = (   0.4847673   0.5197782   0.4953638  )
         3        O      tau(   3) = (   0.6925247  -0.1599317   0.3083633  )
         4        O      tau(   4) = (  -0.6925248   0.1599317   0.4953638  )
         5        O      tau(   5) = (  -0.2077574   0.6797099   0.3083633  )
         6        O      tau(   6) = (   0.2077574  -0.6797099   0.4953638  )
         7        O      tau(   7) = (   0.1218176   0.3323883   0.4179381  )
         8        O      tau(   8) = (  -0.1218176  -0.3323883   0.3857890  )
         9        O      tau(   9) = (  -0.3487655  -0.0606970   0.4179381  )
        10        O      tau(  10) = (   0.3487655   0.0606970   0.3857890  )
        11        O      tau(  11) = (   0.2269479  -0.2716913   0.4179381  )
        12        O      tau(  12) = (  -0.2269479   0.2716912   0.3857890  )
        13        H      tau(  13) = (  -0.5381668  -0.4032014   0.2796970  )
        14        H      tau(  14) = (   0.5381668   0.4032014   0.5240301  )
        15        H      tau(  15) = (   0.6182661  -0.2644654   0.2796970  )
        16        H      tau(  16) = (  -0.6182661   0.2644654   0.5240301  )
        17        H      tau(  17) = (  -0.0800993   0.6676668   0.2796970  )
        18        H      tau(  18) = (   0.0800993  -0.6676668   0.5240301  )
        19        H      tau(  19) = (  -0.4872704  -0.4817221   0.4326731  )
        20        H      tau(  20) = (   0.4872704   0.4817221   0.3710540  )
        21        H      tau(  21) = (   0.6608188  -0.1811275   0.4326731  )
        22        H      tau(  22) = (  -0.6608188   0.1811275   0.3710540  )
        23        H      tau(  23) = (  -0.1735484   0.6628496   0.4326731  )
        24        H      tau(  24) = (   0.1735484  -0.6628496   0.3710540  )
        25        H      tau(  25) = (   0.2703349  -0.1502973   0.4058822  )
        26        H      tau(  26) = (  -0.2703350   0.1502973   0.3978449  )
        27        H      tau(  27) = (  -0.0050062   0.3092656   0.4058822  )
        28        H      tau(  28) = (   0.0050062  -0.3092656   0.3978449  )
        29        H      tau(  29) = (  -0.2653287  -0.1589683   0.4058822  )
        30        H      tau(  30) = (   0.2653287   0.1589683   0.3978449  )
        31        H      tau(  31) = (   0.3178939  -0.3347969   0.3493534  )
        32        H      tau(  32) = (  -0.3178939   0.3347969   0.4543737  )
        33        H      tau(  33) = (   0.1309957   0.4427026   0.3493534  )
        34        H      tau(  34) = (  -0.1309956  -0.4427026   0.4543737  )
        35        H      tau(  35) = (  -0.4488895  -0.1079057   0.3493534  )
        36        H      tau(  36) = (   0.4488895   0.1079057   0.4543737  )

     number of k points=     6
                       cart. coord. in units 2pi/alat
        k(    1) = (   0.0000000   0.0000000   0.0000000), wk =   0.0740741
        k(    2) = (  -0.1997522  -0.1153270   0.4147345), wk =   0.4444444
        k(    3) = (  -0.1997522   0.1153270   0.8294689), wk =   0.4444444
        k(    4) = (   0.1997522   0.3459809   0.0000000), wk =   0.4444444
        k(    5) = (  -0.0000000   0.0000000   1.2442034), wk =   0.1481481
        k(    6) = (   0.3995044   0.2306540   0.4147345), wk =   0.4444444

     Dense  grid:    24773 G-vectors     FFT dimensions: (  45,  45,  45)

     Estimated max dynamical RAM per process >       2.35 MB

     Estimated total dynamical RAM >     283.07 MB

     Initial potential from superposition of free atoms

     starting charge      95.9998, renormalised to      96.0000

     negative rho (up, down):  7.718E-04 0.000E+00
     Starting wfcs are   72 randomized atomic wfcs

     total cpu time spent up to now is        0.5 secs

     per-process dynamical memory:     9.3 Mb

     Self-consistent Calculation

     iteration #  1     ecut=    20.00 Ry     beta= 0.70
     Davidson diagonalization with overlap
     ethr =  1.00E-02,  avg # of iterations =  2.0

     negative rho (up, down):  8.260E-03 0.000E+00

     total cpu time spent up to now is        0.6 secs

     total energy              =    -411.46509775 Ry
     estimated scf accuracy    <       2.93807910 Ry

     iteration #  2     ecut=    20.00 Ry     beta= 0.70
     Davidson diagonalization with overlap
     ethr =  3.06E-03,  avg # of iterations =  2.0

     negative rho (up, down):  6.313E-03 0.000E+00

     total cpu time spent up to now is        0.8 secs

     total energy              =    -412.33549528 Ry
     estimated scf accuracy    <       1.57017788 Ry

     iteration #  3     ecut=    20.00 Ry     beta= 0.70
     Davidson diagonalization with overlap
     ethr =  1.64E-03,  avg # of iterations =  2.0

     negative rho (up, down):  8.265E-03 0.000E+00

     total cpu time spent up to now is        0.9 secs

     total energy              =    -412.56307634 Ry
     estimated scf accuracy    <       0.02976864 Ry

     iteration #  4     ecut=    20.00 Ry     beta= 0.70
     Davidson diagonalization with overlap
     ethr =  3.10E-05,  avg # of iterations =  3.0

     negative rho (up, down):  8.107E-03 0.000E+00

     total cpu time spent up to now is        1.0 secs

     total energy              =    -412.57261472 Ry
     estimated scf accuracy    <       0.02031253 Ry

     iteration #  5     ecut=    20.00 Ry     beta= 0.70
     Davidson diagonalization with overlap
     ethr =  2.12E-05,  avg # of iterations =  1.0

     negative rho (up, down):  8.159E-03 0.000E+00

     total cpu time spent up to now is        1.1 secs

     total energy              =    -412.57324036 Ry
     estimated scf accuracy    <       0.00355021 Ry

     iteration #  6     ecut=    20.00 Ry     beta= 0.70
     Davidson diagonalization with overlap
     ethr =  3.70E-06,  avg # of iterations =  2.0

     negative rho (up, down):  8.146E-03 0.000E+00

     total cpu time spent up to now is        1.2 secs

     total energy              =    -412.57302704 Ry
     estimated scf accuracy    <       0.00122884 Ry

     iteration #  7     ecut=    20.00 Ry     beta= 0.70
     Davidson diagonalization with overlap
     ethr =  1.28E-06,  avg # of iterations =  2.0

     negative rho (up, down):  8.114E-03 0.000E+00

     total cpu time spent up to now is        1.3 secs

     total energy              =    -412.57323955 Ry
     estimated scf accuracy    <       0.00001702 Ry

     iteration #  8     ecut=    20.00 Ry     beta= 0.70
     Davidson diagonalization with overlap
     ethr =  1.77E-08,  avg # of iterations =  2.3

     negative rho (up, down):  8.104E-03 0.000E+00

     total cpu time spent up to now is        1.4 secs

     total energy              =    -412.57324641 Ry
     estimated scf accuracy    <       0.00000022 Ry

     iteration #  9     ecut=    20.00 Ry     beta= 0.70
     Davidson diagonalization with overlap
     ethr =  2.31E-10,  avg # of iterations =  4.0

     negative rho (up, down):  8.100E-03 0.000E+00

     total cpu time spent up to now is        1.6 secs

     total energy              =    -412.57324597 Ry
     estimated scf accuracy    <       0.00000295 Ry

     iteration # 10     ecut=    20.00 Ry     beta= 0.70
     Davidson diagonalization with overlap
     ethr =  2.31E-10,  avg # of iterations =  3.0

     negative rho (up, down):  8.097E-03 0.000E+00

     total cpu time spent up to now is        1.7 secs

     total energy              =    -412.57324628 Ry
     estimated scf accuracy    <       0.00000013 Ry

     iteration # 11     ecut=    20.00 Ry     beta= 0.70
     Davidson diagonalization with overlap
     ethr =  1.39E-10,  avg # of iterations =  2.0

     negative rho (up, down):  8.096E-03 0.000E+00

     total cpu time spent up to now is        1.8 secs

     End of self-consistent calculation

          k = 0.0000 0.0000 0.0000 (  3119 PWs)   bands (ev):

   -21.1023 -20.6468 -20.6468 -20.4273 -20.4273 -20.3997 -20.3997 -20.3868
   -20.3847 -20.0878 -20.0878 -19.7759  -8.1833  -7.9880  -7.9324  -7.9324
    -7.8446  -7.8446  -7.4544  -7.2790  -7.2790  -7.0559  -7.0559  -6.9241
    -6.8597  -5.9998  -5.9998  -5.4014  -5.4014  -5.3228  -5.3228  -5.0426
    -4.8365  -4.1949  -4.1949  -3.5200  -2.8386  -2.8386  -2.7550  -2.6527
    -2.6287  -2.6287  -2.4667  -2.4667  -2.4510  -2.4395  -2.3971  -2.3971

          k =-0.1998-0.1153 0.4147 (  3105 PWs)   bands (ev):

   -20.9761 -20.7129 -20.6431 -20.6269 -20.5647 -20.4976 -20.3099 -20.2692
   -20.1748 -20.0916 -20.0358 -19.8762  -8.0953  -8.0671  -7.9708  -7.9145
    -7.8149  -7.7565  -7.4154  -7.2357  -7.2164  -7.0984  -6.9046  -6.8987
    -6.6288  -6.2243  -6.0137  -5.8168  -5.4400  -5.2506  -5.1830  -4.9466
    -4.7016  -4.2027  -4.0932  -3.7553  -3.0243  -2.9000  -2.7789  -2.7405
    -2.6747  -2.6463  -2.5829  -2.5257  -2.4778  -2.3828  -2.3558  -2.2915

          k =-0.1998 0.1153 0.8295 (  3099 PWs)   bands (ev):

   -20.8340 -20.8109 -20.7444 -20.6424 -20.5863 -20.5137 -20.2743 -20.1720
   -20.1486 -20.0550 -20.0131 -19.9823  -8.1329  -8.0486  -7.9285  -7.9152
    -7.8458  -7.7589  -7.4112  -7.3149  -7.2458  -6.9228  -6.9100  -6.8411
    -6.4405  -6.4168  -6.2134  -5.7510  -5.6556  -5.2852  -5.0686  -4.7043
    -4.4559  -4.3029  -4.1452  -3.8781  -2.9936  -2.9092  -2.7978  -2.7306
    -2.6830  -2.6420  -2.5774  -2.5437  -2.4994  -2.3907  -2.3504  -2.2463

          k = 0.1998 0.3460 0.0000 (  3098 PWs)   bands (ev):

   -21.0090 -20.7777 -20.6731 -20.5645 -20.5143 -20.4393 -20.3280 -20.2622
   -20.2009 -20.1054 -20.0317 -19.8567  -8.1517  -8.0900  -7.9623  -7.9198
    -7.7863  -7.7745  -7.5016  -7.3681  -7.1362  -7.0645  -6.9424  -6.8462
    -6.8088  -6.2355  -6.0115  -5.7847  -5.5809  -5.1951  -4.9520  -4.7600
    -4.6476  -4.3164  -4.1235  -3.6929  -2.8455  -2.8125  -2.7889  -2.7090
    -2.6551  -2.6140  -2.5210  -2.5013  -2.4656  -2.4435  -2.3280  -2.3012

          k =-0.0000 0.0000 1.2442 (  3126 PWs)   bands (ev):

   -20.8570 -20.8570 -20.8254 -20.5959 -20.4373 -20.4373 -20.3169 -20.3169
   -20.1400 -20.0074 -20.0074 -19.9721  -8.1215  -8.1215  -8.0511  -7.8469
    -7.8469  -7.7466  -7.5046  -7.3244  -7.3244  -6.9359  -6.9190  -6.9190
    -6.4900  -6.3708  -6.3708  -5.8054  -5.3999  -5.3999  -4.7589  -4.7589
    -4.6004  -4.1656  -4.1656  -3.9094  -2.8501  -2.8501  -2.7960  -2.7414
    -2.6582  -2.6582  -2.5273  -2.5273  -2.4633  -2.3996  -2.3996  -2.2754

          k = 0.3995 0.2307 0.4147 (  3105 PWs)   bands (ev):

   -20.8944 -20.7506 -20.6892 -20.6592 -20.5980 -20.5079 -20.2920 -20.2249
   -20.1756 -20.0345 -20.0321 -19.9196  -8.1787  -8.0425  -7.9877  -7.8818
    -7.8648  -7.6830  -7.4534  -7.2642  -7.1536  -7.0240  -7.0130  -6.9058
    -6.4592  -6.1643  -5.9607  -5.9464  -5.7704  -5.4777  -4.9030  -4.7391
    -4.5233  -4.2422  -4.1835  -3.7393  -3.0454  -2.9346  -2.8809  -2.8060
    -2.7501  -2.6207  -2.5297  -2.4759  -2.4510  -2.3878  -2.3346  -2.2673

     highest occupied level (ev):    -2.2463

!    total energy              =    -412.57324628 Ry
     estimated scf accuracy    <       0.00000002 Ry

     The total energy is the sum of the following terms:
     one-electron contribution =    -288.19308334 Ry
     hartree contribution      =     178.13361189 Ry
     xc contribution           =    -100.96918257 Ry
     ewald contribution        =    -201.54459227 Ry

     convergence has been achieved in  11 iterations

     Forces acting on atoms (cartesian axes, Ry/au):

     atom    1 type  2   force =    -0.03452742    0.06225188    0.03232032
     atom    2 type  2   force =     0.03452742   -0.06225188   -0.03232032
     atom    3 type  2   force =    -0.03664800   -0.06102756    0.03232032
     atom    4 type  2   force =     0.03664800    0.06102756   -0.03232032
     atom    5 type  2   force =     0.07117542   -0.00122432    0.03232032
     atom    6 type  2   force =    -0.07117542    0.00122432   -0.03232032
     atom    7 type  2   force =    -0.03309119    0.02424981   -0.01926256
     atom    8 type  2   force =     0.03309119   -0.02424981    0.01926256
     atom    9 type  2   force =    -0.00445536   -0.04078272   -0.01926256
     atom   10 type  2   force =     0.00445536    0.04078272    0.01926256
     atom   11 type  2   force =     0.03754655    0.01653290   -0.01926256
     atom   12 type  2   force =    -0.03754655   -0.01653290    0.01926256
     atom   13 type  1   force =     0.00245861   -0.02502695   -0.05141598
     atom   14 type  1   force =    -0.00245861    0.02502695    0.05141598
     atom   15 type  1   force =     0.02044467    0.01464270   -0.05141598
     atom   16 type  1   force =    -0.02044467   -0.01464270    0.05141598
     atom   17 type  1   force =    -0.02290328    0.01038426   -0.05141598
     atom   18 type  1   force =     0.02290328   -0.01038426    0.05141598
     atom   19 type  1   force =     0.02945410   -0.04497449    0.00982097
     atom   20 type  1   force =    -0.02945410    0.04497449   -0.00982097
     atom   21 type  1   force =     0.02422200    0.04799525    0.00982097
     atom   22 type  1   force =    -0.02422200   -0.04799525   -0.00982097
     atom   23 type  1   force =    -0.05367610   -0.00302075    0.00982097
     atom   24 type  1   force =     0.05367610    0.00302075   -0.00982097
     atom   25 type  1   force =    -0.01395638   -0.00283745    0.01273719
     atom   26 type  1   force =     0.01395638    0.00283745   -0.01273719
     atom   27 type  1   force =     0.00943549   -0.01066786    0.01273719
     atom   28 type  1   force =    -0.00943549    0.01066786   -0.01273719
     atom   29 type  1   force =     0.00452089    0.01350530    0.01273719
     atom   30 type  1   force =    -0.00452089   -0.01350530   -0.01273719
     atom   31 type  1   force =    -0.02899748   -0.00897504    0.01616209
     atom   32 type  1   force =     0.02899748    0.00897504   -0.01616209
     atom   33 type  1   force =     0.02227135   -0.02062503    0.01616209
     atom   34 type  1   force =    -0.02227135    0.02062503   -0.01616209
     atom   35 type  1   force =     0.00672612    0.02960007    0.01616209
     atom   36 type  1   force =    -0.00672612   -0.02960007   -0.01616209

     Total force =     0.309612     Total SCF correction =     0.000212


     Computing stress (Cartesian axis) and pressure

          total   stress  (Ry/bohr**3)                   (kbar)     P=     -442.10
  -0.00307649  -0.00000000   0.00000000         -452.57       -0.00        0.00
   0.00000000  -0.00307649  -0.00000000            0.00     -452.57       -0.00
   0.00000000  -0.00000000  -0.00286307            0.00       -0.00     -421.17


     Writing all to output data dir ./iceII_2/iceII_2.save/ :
     XML data file, charge density, pseudopotentials, collected wavefunctions

     init_run     :      0.22s CPU      0.26s WALL (       1 calls)
     electrons    :      1.25s CPU      1.33s WALL (       1 calls)
     forces       :      0.02s CPU      0.03s WALL (       1 calls)
     stress       :      0.06s CPU      0.07s WALL (       1 calls)

     Called by init_run:
     wfcinit      :      0.06s CPU      0.06s WALL (       1 calls)
     potinit      :      0.01s CPU      0.02s WALL (       1 calls)
     hinit0       :      0.12s CPU      0.13s WALL (       1 calls)

     Called by electrons:
     c_bands      :      1.05s CPU      1.08s WALL (      11 calls)
     sum_band     :      0.13s CPU      0.15s WALL (      11 calls)
     v_of_rho     :      0.05s CPU      0.06s WALL (      12 calls)
     newd         :      0.01s CPU      0.01s WALL (      12 calls)
     mix_rho      :      0.01s CPU      0.01s WALL (      11 calls)

     Called by c_bands:
     init_us_2    :      0.00s CPU      0.01s WALL (      50 calls)
     cegterg      :      1.03s CPU      1.05s WALL (      22 calls)

     Called by *egterg:
     cdiaghg      :      0.26s CPU      0.27s WALL (      73 calls)
     h_psi        :      0.71s CPU      0.73s WALL (      75 calls)
     s_psi        :      0.02s CPU      0.02s WALL (      75 calls)
     g_psi        :      0.00s CPU      0.00s WALL (      51 calls)

     Called by h_psi:
     h_psi:calbec :      0.03s CPU      0.03s WALL (      75 calls)
     vloc_psi     :      0.67s CPU      0.68s WALL (      75 calls)
     add_vuspsi   :      0.02s CPU      0.02s WALL (      75 calls)

     General routines
     calbec       :      0.04s CPU      0.04s WALL (     107 calls)
     fft          :      0.14s CPU      0.15s WALL (     140 calls)
     ffts         :      0.00s CPU      0.00s WALL (      11 calls)
     fftw         :      0.73s CPU      0.75s WALL (    7530 calls)

     Parallel routines

     PWSCF        :      1.74s CPU      2.04s WALL


   This run was terminated on:  14:56: 9  19Mar2026            

=------------------------------------------------------------------------------=
   JOB DONE.
=------------------------------------------------------------------------------=
