
     Program PWSCF v.7.3.1 starts on 19Mar2026 at 14:55:55 

     This program is part of the open-source Quantum ESPRESSO suite
     for quantum simulation of materials; please cite
         "P. Giannozzi et al., J. Phys.:Condens. Matter 21 395502 (2009);
         "P. Giannozzi et al., J. Phys.:Condens. Matter 29 465901 (2017);
         "P. Giannozzi et al., J. Chem. Phys. 152 154105 (2020);
          URL http://www.quantum-espresso.org", 
     in publications or presentations arising from this work. More details at
     http://www.quantum-espresso.org/quote

     Parallel version (MPI), running on   128 processors

     MPI processes distributed on     1 nodes
     243905 MiB available memory on the printing compute node when the environment starts

     Waiting for input...
     Reading input from standard input

     Current dimensions of program PWSCF are:
     Max number of different atomic species (ntypx) = 10
     Max number of k-points (npk) =  40000
     Max angular momentum in pseudopotentials (lmaxx) =  4

     K-points division:     npool     =       4
     R & G space division:  proc/nbgrp/npool/nimage =      32
     Subspace diagonalization in iterative solution of the eigenvalue problem:
     a serial algorithm will be used


     Parallelization info
     --------------------
     sticks:   dense  smooth     PW     G-vecs:    dense   smooth      PW
     Min          39      39     13                  773      773     157
     Max          40      40     14                  776      776     160
     Sum        1253    1253    441                24773    24773    5077

     Using Slab Decomposition



     bravais-lattice index     =            5
     lattice parameter (alat)  =      14.7021  a.u.
     unit-cell volume          =    2053.1832 (a.u.)^3
     number of atoms/cell      =           36
     number of atomic types    =            2
     number of electrons       =        96.00
     number of Kohn-Sham states=           48
     kinetic-energy cutoff     =      20.0000  Ry
     charge density cutoff     =      80.0000  Ry
     scf convergence threshold =      1.0E-07
     mixing beta               =       0.7000
     number of iterations used =            8  plain     mixing
     Exchange-correlation=  SLA  PW   PBE  PBE
                           (   1   4   3   4   0   0   0)

     celldm(1)=  14.702068  celldm(2)=   0.000000  celldm(3)=   0.000000
     celldm(4)=  -0.392337  celldm(5)=   0.000000  celldm(6)=   0.000000

     crystal axes: (cart. coord. in units of alat)
               a(1) = (   0.834367  -0.481722   0.267909 )  
               a(2) = (   0.000000   0.963444   0.267909 )  
               a(3) = (  -0.834367  -0.481722   0.267909 )  

     reciprocal axes: (cart. coord. in units 2 pi/alat)
               b(1) = (  0.599257 -0.345981  1.244203 )  
               b(2) = ( -0.000000  0.691962  1.244203 )  
               b(3) = ( -0.599257 -0.345981  1.244203 )  


     PseudoPot. # 1 for H  read from file:
     ./H.pbe-van_ak.UPF
     MD5 check sum: 077eb6d537518a38cb46c6de387227b7
     Pseudo is Ultrasoft, Zval =  1.0
     Generated by new atomic code, or converted to UPF format
     Using radial grid of  615 points,  1 beta functions with: 
                l(1) =   0
     Q(r) pseudized with  8 coefficients,  rinner =    0.800

     PseudoPot. # 2 for O  read from file:
     ./O.pbe-van_ak.UPF
     MD5 check sum: 78c19812648e8988a0fe644b0f25305e
     Pseudo is Ultrasoft, Zval =  6.0
     Generated by new atomic code, or converted to UPF format
     Using radial grid of  737 points,  4 beta functions with: 
                l(1) =   0
                l(2) =   0
                l(3) =   1
                l(4) =   1
     Q(r) pseudized with  8 coefficients,  rinner =    0.800   0.800   0.800


     atomic species   valence    mass     pseudopotential
     H                 1.00     1.00800     H ( 1.00)
     O                 6.00    16.00000     O ( 1.00)

      6 Sym. Ops., with inversion, found



   Cartesian axes

     site n.     atom                  positions (alat units)
         1        O      tau(   1) = (  -0.4847673  -0.5197781   0.3083633  )
         2        O      tau(   2) = (   0.4847673   0.5197782   0.4953638  )
         3        O      tau(   3) = (   0.6925247  -0.1599317   0.3083633  )
         4        O      tau(   4) = (  -0.6925248   0.1599317   0.4953638  )
         5        O      tau(   5) = (  -0.2077574   0.6797099   0.3083633  )
         6        O      tau(   6) = (   0.2077574  -0.6797099   0.4953638  )
         7        O      tau(   7) = (   0.1218176   0.3323883   0.4179381  )
         8        O      tau(   8) = (  -0.1218176  -0.3323883   0.3857890  )
         9        O      tau(   9) = (  -0.3487655  -0.0606970   0.4179381  )
        10        O      tau(  10) = (   0.3487655   0.0606970   0.3857890  )
        11        O      tau(  11) = (   0.2269479  -0.2716913   0.4179381  )
        12        O      tau(  12) = (  -0.2269479   0.2716912   0.3857890  )
        13        H      tau(  13) = (  -0.5381668  -0.4032014   0.2796970  )
        14        H      tau(  14) = (   0.5381668   0.4032014   0.5240301  )
        15        H      tau(  15) = (   0.6182661  -0.2644654   0.2796970  )
        16        H      tau(  16) = (  -0.6182661   0.2644654   0.5240301  )
        17        H      tau(  17) = (  -0.0800993   0.6676668   0.2796970  )
        18        H      tau(  18) = (   0.0800993  -0.6676668   0.5240301  )
        19        H      tau(  19) = (  -0.4872704  -0.4817221   0.4326731  )
        20        H      tau(  20) = (   0.4872704   0.4817221   0.3710540  )
        21        H      tau(  21) = (   0.6608188  -0.1811275   0.4326731  )
        22        H      tau(  22) = (  -0.6608188   0.1811275   0.3710540  )
        23        H      tau(  23) = (  -0.1735484   0.6628496   0.4326731  )
        24        H      tau(  24) = (   0.1735484  -0.6628496   0.3710540  )
        25        H      tau(  25) = (   0.2703349  -0.1502973   0.4058822  )
        26        H      tau(  26) = (  -0.2703350   0.1502973   0.3978449  )
        27        H      tau(  27) = (  -0.0050062   0.3092656   0.4058822  )
        28        H      tau(  28) = (   0.0050062  -0.3092656   0.3978449  )
        29        H      tau(  29) = (  -0.2653287  -0.1589683   0.4058822  )
        30        H      tau(  30) = (   0.2653287   0.1589683   0.3978449  )
        31        H      tau(  31) = (   0.3178939  -0.3347969   0.3493534  )
        32        H      tau(  32) = (  -0.3178939   0.3347969   0.4543737  )
        33        H      tau(  33) = (   0.1309957   0.4427026   0.3493534  )
        34        H      tau(  34) = (  -0.1309956  -0.4427026   0.4543737  )
        35        H      tau(  35) = (  -0.4488895  -0.1079057   0.3493534  )
        36        H      tau(  36) = (   0.4488895   0.1079057   0.4543737  )

     number of k points=     4
                       cart. coord. in units 2pi/alat
        k(    1) = (   0.0000000   0.0000000   0.0000000), wk =   0.2500000
        k(    2) = (   0.2996283   0.1729905  -0.6221017), wk =   0.7500000
        k(    3) = (   0.2996283  -0.1729905  -1.2442034), wk =   0.7500000
        k(    4) = (   0.0000000   0.0000000  -1.8663050), wk =   0.2500000

     Dense  grid:    24773 G-vectors     FFT dimensions: (  45,  45,  45)

     Estimated max dynamical RAM per process >       2.21 MB

     Estimated total dynamical RAM >     265.07 MB

     Initial potential from superposition of free atoms

     starting charge      95.9998, renormalised to      96.0000

     negative rho (up, down):  7.718E-04 0.000E+00
     Starting wfcs are   72 randomized atomic wfcs

     total cpu time spent up to now is        8.8 secs

     per-process dynamical memory:     9.0 Mb

     Self-consistent Calculation

     iteration #  1     ecut=    20.00 Ry     beta= 0.70
     Davidson diagonalization with overlap
     ethr =  1.00E-02,  avg # of iterations =  2.0

     negative rho (up, down):  8.237E-03 0.000E+00

     total cpu time spent up to now is        9.0 secs

     total energy              =    -411.45572522 Ry
     estimated scf accuracy    <       2.92804399 Ry

     iteration #  2     ecut=    20.00 Ry     beta= 0.70
     Davidson diagonalization with overlap
     ethr =  3.05E-03,  avg # of iterations =  2.0

     negative rho (up, down):  6.300E-03 0.000E+00

     total cpu time spent up to now is        9.0 secs

     total energy              =    -412.32011394 Ry
     estimated scf accuracy    <       1.56050357 Ry

     iteration #  3     ecut=    20.00 Ry     beta= 0.70
     Davidson diagonalization with overlap
     ethr =  1.63E-03,  avg # of iterations =  2.0

     negative rho (up, down):  8.276E-03 0.000E+00

     total cpu time spent up to now is        9.1 secs

     total energy              =    -412.54711956 Ry
     estimated scf accuracy    <       0.02945829 Ry

     iteration #  4     ecut=    20.00 Ry     beta= 0.70
     Davidson diagonalization with overlap
     ethr =  3.07E-05,  avg # of iterations =  3.0

     negative rho (up, down):  8.115E-03 0.000E+00

     total cpu time spent up to now is        9.2 secs

     total energy              =    -412.55645574 Ry
     estimated scf accuracy    <       0.01993725 Ry

     iteration #  5     ecut=    20.00 Ry     beta= 0.70
     Davidson diagonalization with overlap
     ethr =  2.08E-05,  avg # of iterations =  1.0

     negative rho (up, down):  8.165E-03 0.000E+00

     total cpu time spent up to now is        9.2 secs

     total energy              =    -412.55709555 Ry
     estimated scf accuracy    <       0.00348138 Ry

     iteration #  6     ecut=    20.00 Ry     beta= 0.70
     Davidson diagonalization with overlap
     ethr =  3.63E-06,  avg # of iterations =  2.0

     negative rho (up, down):  8.154E-03 0.000E+00

     total cpu time spent up to now is        9.3 secs

     total energy              =    -412.55685615 Ry
     estimated scf accuracy    <       0.00125668 Ry

     iteration #  7     ecut=    20.00 Ry     beta= 0.70
     Davidson diagonalization with overlap
     ethr =  1.31E-06,  avg # of iterations =  2.0

     negative rho (up, down):  8.122E-03 0.000E+00

     total cpu time spent up to now is        9.3 secs

     total energy              =    -412.55707454 Ry
     estimated scf accuracy    <       0.00001687 Ry

     iteration #  8     ecut=    20.00 Ry     beta= 0.70
     Davidson diagonalization with overlap
     ethr =  1.76E-08,  avg # of iterations =  2.8

     negative rho (up, down):  8.116E-03 0.000E+00

     total cpu time spent up to now is        9.4 secs

     total energy              =    -412.55708138 Ry
     estimated scf accuracy    <       0.00000026 Ry

     iteration #  9     ecut=    20.00 Ry     beta= 0.70
     Davidson diagonalization with overlap
     ethr =  2.72E-10,  avg # of iterations =  4.0

     negative rho (up, down):  8.112E-03 0.000E+00

     total cpu time spent up to now is        9.5 secs

     total energy              =    -412.55708106 Ry
     estimated scf accuracy    <       0.00000233 Ry

     iteration # 10     ecut=    20.00 Ry     beta= 0.70
     Davidson diagonalization with overlap
     ethr =  2.72E-10,  avg # of iterations =  3.0

     negative rho (up, down):  8.107E-03 0.000E+00

     total cpu time spent up to now is        9.5 secs

     End of self-consistent calculation

          k = 0.0000 0.0000 0.0000 (  3119 PWs)   bands (ev):

   -21.1040 -20.6488 -20.6488 -20.4291 -20.4291 -20.4017 -20.4017 -20.3887
   -20.3867 -20.0897 -20.0897 -19.7779  -8.1842  -7.9890  -7.9336  -7.9336
    -7.8454  -7.8454  -7.4559  -7.2805  -7.2805  -7.0581  -7.0581  -6.9261
    -6.8619  -6.0021  -6.0021  -5.4034  -5.4034  -5.3243  -5.3243  -5.0446
    -4.8385  -4.1969  -4.1969  -3.5220  -2.8403  -2.8403  -2.7572  -2.6548
    -2.6309  -2.6309  -2.4692  -2.4692  -2.4530  -2.4414  -2.3990  -2.3990

          k = 0.2996 0.1730-0.6221 (  3096 PWs)   bands (ev):

   -20.8409 -20.8400 -20.6717 -20.6559 -20.5482 -20.5430 -20.2795 -20.2698
   -20.0989 -20.0966 -19.9889 -19.9706  -8.1038  -8.0380  -7.9588  -7.9295
    -7.8217  -7.7571  -7.3752  -7.2460  -7.2040  -7.1007  -6.8594  -6.8554
    -6.4818  -6.3615  -6.0439  -5.8835  -5.4193  -5.3401  -5.1372  -4.9742
    -4.4362  -4.3301  -4.0661  -3.8456  -3.0753  -2.8957  -2.7898  -2.7642
    -2.6979  -2.6793  -2.5754  -2.5285  -2.5143  -2.3726  -2.3409  -2.2681

          k = 0.2996-0.1730-1.2442 (  3094 PWs)   bands (ev):

   -20.9221 -20.8857 -20.6824 -20.5886 -20.5114 -20.4539 -20.2986 -20.2644
   -20.1532 -20.1315 -19.9535 -19.9387  -8.1485  -8.1098  -7.9574  -7.9293
    -7.7693  -7.7674  -7.4801  -7.4062  -7.1401  -7.0884  -6.9062  -6.8455
    -6.5612  -6.5105  -6.0553  -5.8362  -5.5077  -5.2657  -4.8988  -4.6324
    -4.5269  -4.4628  -4.0140  -3.8347  -2.8646  -2.8016  -2.7987  -2.7250
    -2.6487  -2.5746  -2.5564  -2.5025  -2.4892  -2.4394  -2.3128  -2.2838

          k = 0.0000 0.0000-1.8663 (  3084 PWs)   bands (ev):

   -20.7740 -20.7591 -20.6676 -20.6676 -20.6629 -20.6629 -20.1881 -20.1881
   -20.1528 -20.1528 -19.9685 -19.9526  -8.2292  -7.9459  -7.9459  -7.9155
    -7.9155  -7.6575  -7.4467  -7.2878  -7.0128  -7.0128  -6.9894  -6.9894
    -6.1855  -5.9729  -5.9533  -5.9533  -5.9429  -5.9429  -4.6759  -4.6759
    -4.4316  -4.4316  -4.1752  -3.6916  -3.1319  -2.9346  -2.9346  -2.8347
    -2.8347  -2.5451  -2.5449  -2.4393  -2.4393  -2.3524  -2.3524  -2.2316

     highest occupied level (ev):    -2.2316

!    total energy              =    -412.55708131 Ry
     estimated scf accuracy    <       0.00000008 Ry

     The total energy is the sum of the following terms:
     one-electron contribution =    -288.16376592 Ry
     hartree contribution      =     178.11691783 Ry
     xc contribution           =    -100.96564096 Ry
     ewald contribution        =    -201.54459227 Ry

     convergence has been achieved in  10 iterations

     Forces acting on atoms (cartesian axes, Ry/au):

     atom    1 type  2   force =    -0.03442181    0.06216444    0.03272787
     atom    2 type  2   force =     0.03442181   -0.06216444   -0.03272787
     atom    3 type  2   force =    -0.03662508   -0.06089238    0.03272787
     atom    4 type  2   force =     0.03662508    0.06089238   -0.03272787
     atom    5 type  2   force =     0.07104689   -0.00127206    0.03272787
     atom    6 type  2   force =    -0.07104689    0.00127206   -0.03272787
     atom    7 type  2   force =    -0.03335471    0.02503883   -0.01930376
     atom    8 type  2   force =     0.03335471   -0.02503883    0.01930376
     atom    9 type  2   force =    -0.00500691   -0.04140544   -0.01930376
     atom   10 type  2   force =     0.00500691    0.04140544    0.01930376
     atom   11 type  2   force =     0.03836162    0.01636661   -0.01930376
     atom   12 type  2   force =    -0.03836162   -0.01636661    0.01930376
     atom   13 type  1   force =     0.00257090   -0.02517988   -0.05150518
     atom   14 type  1   force =    -0.00257090    0.02517988    0.05150518
     atom   15 type  1   force =     0.02052096    0.01481640   -0.05150518
     atom   16 type  1   force =    -0.02052096   -0.01481640    0.05150518
     atom   17 type  1   force =    -0.02309186    0.01036348   -0.05150518
     atom   18 type  1   force =     0.02309186   -0.01036348    0.05150518
     atom   19 type  1   force =     0.02944298   -0.04484406    0.00993076
     atom   20 type  1   force =    -0.02944298    0.04484406   -0.00993076
     atom   21 type  1   force =     0.02411461    0.04792040    0.00993076
     atom   22 type  1   force =    -0.02411461   -0.04792040   -0.00993076
     atom   23 type  1   force =    -0.05355759   -0.00307634    0.00993076
     atom   24 type  1   force =     0.05355759    0.00307634   -0.00993076
     atom   25 type  1   force =    -0.01404597   -0.00297075    0.01272613
     atom   26 type  1   force =     0.01404597    0.00297075   -0.01272613
     atom   27 type  1   force =     0.00959573   -0.01067879    0.01272613
     atom   28 type  1   force =    -0.00959573    0.01067879   -0.01272613
     atom   29 type  1   force =     0.00445024    0.01364954    0.01272613
     atom   30 type  1   force =    -0.00445024   -0.01364954   -0.01272613
     atom   31 type  1   force =    -0.02922664   -0.00868213    0.01615116
     atom   32 type  1   force =     0.02922664    0.00868213   -0.01615116
     atom   33 type  1   force =     0.02213227   -0.02096995    0.01615116
     atom   34 type  1   force =    -0.02213227    0.02096995   -0.01615116
     atom   35 type  1   force =     0.00709437    0.02965208    0.01615116
     atom   36 type  1   force =    -0.00709437   -0.02965208   -0.01615116

     Total force =     0.310428     Total SCF correction =     0.000387


     Computing stress (Cartesian axis) and pressure

          total   stress  (Ry/bohr**3)                   (kbar)     P=     -446.55
  -0.00311281   0.00000000   0.00000000         -457.91        0.00        0.00
  -0.00000000  -0.00311281  -0.00000000           -0.00     -457.91       -0.00
  -0.00000000  -0.00000000  -0.00288119           -0.00       -0.00     -423.84


     Writing all to output data dir ./iceII_2/iceII_2.save/ :
     XML data file, charge density, pseudopotentials, collected wavefunctions

     init_run     :      0.16s CPU      3.58s WALL (       1 calls)
     electrons    :      0.66s CPU      0.77s WALL (       1 calls)
     forces       :      0.01s CPU      0.03s WALL (       1 calls)
     stress       :      0.04s CPU      0.05s WALL (       1 calls)

     Called by init_run:
     wfcinit      :      0.03s CPU      3.33s WALL (       1 calls)
     potinit      :      0.00s CPU      0.03s WALL (       1 calls)
     hinit0       :      0.11s CPU      0.18s WALL (       1 calls)

     Called by electrons:
     c_bands      :      0.50s CPU      0.52s WALL (      10 calls)
     sum_band     :      0.07s CPU      0.08s WALL (      10 calls)
     v_of_rho     :      0.04s CPU      0.05s WALL (      11 calls)
     newd         :      0.01s CPU      0.01s WALL (      11 calls)
     mix_rho      :      0.01s CPU      0.02s WALL (      10 calls)

     Called by c_bands:
     init_us_2    :      0.00s CPU      0.00s WALL (      21 calls)
     cegterg      :      0.48s CPU      0.49s WALL (      10 calls)

     Called by *egterg:
     cdiaghg      :      0.12s CPU      3.38s WALL (      34 calls)
     h_psi        :      0.34s CPU      0.39s WALL (      35 calls)
     s_psi        :      0.01s CPU      0.01s WALL (      35 calls)
     g_psi        :      0.00s CPU      0.00s WALL (      24 calls)

     Called by h_psi:
     h_psi:calbec :      0.01s CPU      0.05s WALL (      35 calls)
     vloc_psi     :      0.32s CPU      0.33s WALL (      35 calls)
     add_vuspsi   :      0.01s CPU      0.01s WALL (      35 calls)

     General routines
     calbec       :      0.02s CPU      0.06s WALL (      50 calls)
     fft          :      0.13s CPU      0.19s WALL (     129 calls)
     ffts         :      0.00s CPU      0.00s WALL (      10 calls)
     fftw         :      0.35s CPU      0.36s WALL (    3460 calls)

     Parallel routines

     PWSCF        :      1.05s CPU      9.76s WALL


   This run was terminated on:  14:56: 4  19Mar2026            

=------------------------------------------------------------------------------=
   JOB DONE.
=------------------------------------------------------------------------------=
