
     Program PWSCF v.7.3.1 starts on 19Mar2026 at 15: 1:30 

     This program is part of the open-source Quantum ESPRESSO suite
     for quantum simulation of materials; please cite
         "P. Giannozzi et al., J. Phys.:Condens. Matter 21 395502 (2009);
         "P. Giannozzi et al., J. Phys.:Condens. Matter 29 465901 (2017);
         "P. Giannozzi et al., J. Chem. Phys. 152 154105 (2020);
          URL http://www.quantum-espresso.org", 
     in publications or presentations arising from this work. More details at
     http://www.quantum-espresso.org/quote

     Parallel version (MPI), running on   128 processors

     MPI processes distributed on     1 nodes
     241872 MiB available memory on the printing compute node when the environment starts

     Waiting for input...
     Reading input from standard input

     Current dimensions of program PWSCF are:
     Max number of different atomic species (ntypx) = 10
     Max number of k-points (npk) =  40000
     Max angular momentum in pseudopotentials (lmaxx) =  4

     K-points division:     npool     =       8
     R & G space division:  proc/nbgrp/npool/nimage =      16
     Subspace diagonalization in iterative solution of the eigenvalue problem:
     a serial algorithm will be used


     Parallelization info
     --------------------
     sticks:   dense  smooth     PW     G-vecs:    dense   smooth      PW
     Min          78      78     27                 1547     1547     316
     Max          79      79     28                 1550     1550     319
     Sum        1253    1253    441                24773    24773    5077

     Using Slab Decomposition



     bravais-lattice index     =            5
     lattice parameter (alat)  =      14.7021  a.u.
     unit-cell volume          =    2053.1832 (a.u.)^3
     number of atoms/cell      =           36
     number of atomic types    =            2
     number of electrons       =        96.00
     number of Kohn-Sham states=           48
     kinetic-energy cutoff     =      20.0000  Ry
     charge density cutoff     =      80.0000  Ry
     scf convergence threshold =      1.0E-07
     mixing beta               =       0.7000
     number of iterations used =            8  plain     mixing
     Exchange-correlation=  SLA  PW   PBE  PBE
                           (   1   4   3   4   0   0   0)

     celldm(1)=  14.702068  celldm(2)=   0.000000  celldm(3)=   0.000000
     celldm(4)=  -0.392337  celldm(5)=   0.000000  celldm(6)=   0.000000

     crystal axes: (cart. coord. in units of alat)
               a(1) = (   0.834367  -0.481722   0.267909 )  
               a(2) = (   0.000000   0.963444   0.267909 )  
               a(3) = (  -0.834367  -0.481722   0.267909 )  

     reciprocal axes: (cart. coord. in units 2 pi/alat)
               b(1) = (  0.599257 -0.345981  1.244203 )  
               b(2) = ( -0.000000  0.691962  1.244203 )  
               b(3) = ( -0.599257 -0.345981  1.244203 )  


     PseudoPot. # 1 for H  read from file:
     ./H.pbe-van_ak.UPF
     MD5 check sum: 077eb6d537518a38cb46c6de387227b7
     Pseudo is Ultrasoft, Zval =  1.0
     Generated by new atomic code, or converted to UPF format
     Using radial grid of  615 points,  1 beta functions with: 
                l(1) =   0
     Q(r) pseudized with  8 coefficients,  rinner =    0.800

     PseudoPot. # 2 for O  read from file:
     ./O.pbe-van_ak.UPF
     MD5 check sum: 78c19812648e8988a0fe644b0f25305e
     Pseudo is Ultrasoft, Zval =  6.0
     Generated by new atomic code, or converted to UPF format
     Using radial grid of  737 points,  4 beta functions with: 
                l(1) =   0
                l(2) =   0
                l(3) =   1
                l(4) =   1
     Q(r) pseudized with  8 coefficients,  rinner =    0.800   0.800   0.800


     atomic species   valence    mass     pseudopotential
     H                 1.00     1.00800     H ( 1.00)
     O                 6.00    16.00000     O ( 1.00)

      6 Sym. Ops., with inversion, found



   Cartesian axes

     site n.     atom                  positions (alat units)
         1        O      tau(   1) = (  -0.4847673  -0.5197781   0.3083633  )
         2        O      tau(   2) = (   0.4847673   0.5197782   0.4953638  )
         3        O      tau(   3) = (   0.6925247  -0.1599317   0.3083633  )
         4        O      tau(   4) = (  -0.6925248   0.1599317   0.4953638  )
         5        O      tau(   5) = (  -0.2077574   0.6797099   0.3083633  )
         6        O      tau(   6) = (   0.2077574  -0.6797099   0.4953638  )
         7        O      tau(   7) = (   0.1218176   0.3323883   0.4179381  )
         8        O      tau(   8) = (  -0.1218176  -0.3323883   0.3857890  )
         9        O      tau(   9) = (  -0.3487655  -0.0606970   0.4179381  )
        10        O      tau(  10) = (   0.3487655   0.0606970   0.3857890  )
        11        O      tau(  11) = (   0.2269479  -0.2716913   0.4179381  )
        12        O      tau(  12) = (  -0.2269479   0.2716912   0.3857890  )
        13        H      tau(  13) = (  -0.5381668  -0.4032014   0.2796970  )
        14        H      tau(  14) = (   0.5381668   0.4032014   0.5240301  )
        15        H      tau(  15) = (   0.6182661  -0.2644654   0.2796970  )
        16        H      tau(  16) = (  -0.6182661   0.2644654   0.5240301  )
        17        H      tau(  17) = (  -0.0800993   0.6676668   0.2796970  )
        18        H      tau(  18) = (   0.0800993  -0.6676668   0.5240301  )
        19        H      tau(  19) = (  -0.4872704  -0.4817221   0.4326731  )
        20        H      tau(  20) = (   0.4872704   0.4817221   0.3710540  )
        21        H      tau(  21) = (   0.6608188  -0.1811275   0.4326731  )
        22        H      tau(  22) = (  -0.6608188   0.1811275   0.3710540  )
        23        H      tau(  23) = (  -0.1735484   0.6628496   0.4326731  )
        24        H      tau(  24) = (   0.1735484  -0.6628496   0.3710540  )
        25        H      tau(  25) = (   0.2703349  -0.1502973   0.4058822  )
        26        H      tau(  26) = (  -0.2703350   0.1502973   0.3978449  )
        27        H      tau(  27) = (  -0.0050062   0.3092656   0.4058822  )
        28        H      tau(  28) = (   0.0050062  -0.3092656   0.3978449  )
        29        H      tau(  29) = (  -0.2653287  -0.1589683   0.4058822  )
        30        H      tau(  30) = (   0.2653287   0.1589683   0.3978449  )
        31        H      tau(  31) = (   0.3178939  -0.3347969   0.3493534  )
        32        H      tau(  32) = (  -0.3178939   0.3347969   0.4543737  )
        33        H      tau(  33) = (   0.1309957   0.4427026   0.3493534  )
        34        H      tau(  34) = (  -0.1309956  -0.4427026   0.4543737  )
        35        H      tau(  35) = (  -0.4488895  -0.1079057   0.3493534  )
        36        H      tau(  36) = (   0.4488895   0.1079057   0.4543737  )

     number of k points=   690

     Number of k-points >= 100: set verbosity='high' to print them.

     Dense  grid:    24773 G-vectors     FFT dimensions: (  45,  45,  45)

     Estimated max dynamical RAM per process >      15.67 MB

     Estimated total dynamical RAM >       1.92 GB

     Initial potential from superposition of free atoms

     starting charge      95.9998, renormalised to      96.0000

     negative rho (up, down):  7.718E-04 0.000E+00
     Starting wfcs are   72 randomized atomic wfcs

     total cpu time spent up to now is        2.7 secs

     per-process dynamical memory:    24.2 Mb

     Self-consistent Calculation

     iteration #  1     ecut=    20.00 Ry     beta= 0.70
     Davidson diagonalization with overlap
     ethr =  1.00E-02,  avg # of iterations =  2.0

     negative rho (up, down):  8.257E-03 0.000E+00

     total cpu time spent up to now is        8.0 secs

     total energy              =    -411.46052479 Ry
     estimated scf accuracy    <       2.93535702 Ry

     iteration #  2     ecut=    20.00 Ry     beta= 0.70
     Davidson diagonalization with overlap
     ethr =  3.06E-03,  avg # of iterations =  2.0

     negative rho (up, down):  6.315E-03 0.000E+00

     total cpu time spent up to now is       13.7 secs

     total energy              =    -412.32956009 Ry
     estimated scf accuracy    <       1.56814636 Ry

     iteration #  3     ecut=    20.00 Ry     beta= 0.70
     Davidson diagonalization with overlap
     ethr =  1.63E-03,  avg # of iterations =  2.0

     negative rho (up, down):  8.264E-03 0.000E+00

     total cpu time spent up to now is       19.2 secs

     total energy              =    -412.55700384 Ry
     estimated scf accuracy    <       0.02969219 Ry

     iteration #  4     ecut=    20.00 Ry     beta= 0.70
     Davidson diagonalization with overlap
     ethr =  3.09E-05,  avg # of iterations =  3.0

     negative rho (up, down):  8.108E-03 0.000E+00

     total cpu time spent up to now is       25.9 secs

     total energy              =    -412.56648961 Ry
     estimated scf accuracy    <       0.02022877 Ry

     iteration #  5     ecut=    20.00 Ry     beta= 0.70
     Davidson diagonalization with overlap
     ethr =  2.11E-05,  avg # of iterations =  1.0

     negative rho (up, down):  8.160E-03 0.000E+00

     total cpu time spent up to now is       29.8 secs

     total energy              =    -412.56711269 Ry
     estimated scf accuracy    <       0.00353841 Ry

     iteration #  6     ecut=    20.00 Ry     beta= 0.70
     Davidson diagonalization with overlap
     ethr =  3.69E-06,  avg # of iterations =  2.0

     negative rho (up, down):  8.147E-03 0.000E+00

     total cpu time spent up to now is       34.6 secs

     total energy              =    -412.56689777 Ry
     estimated scf accuracy    <       0.00122598 Ry

     iteration #  7     ecut=    20.00 Ry     beta= 0.70
     Davidson diagonalization with overlap
     ethr =  1.28E-06,  avg # of iterations =  2.0

     negative rho (up, down):  8.114E-03 0.000E+00

     total cpu time spent up to now is       39.9 secs

     total energy              =    -412.56711163 Ry
     estimated scf accuracy    <       0.00001620 Ry

     iteration #  8     ecut=    20.00 Ry     beta= 0.70
     Davidson diagonalization with overlap
     ethr =  1.69E-08,  avg # of iterations =  2.7

     negative rho (up, down):  8.105E-03 0.000E+00

     total cpu time spent up to now is       46.0 secs

     total energy              =    -412.56711849 Ry
     estimated scf accuracy    <       0.00000024 Ry

     iteration #  9     ecut=    20.00 Ry     beta= 0.70
     Davidson diagonalization with overlap
     ethr =  2.52E-10,  avg # of iterations =  4.1

     negative rho (up, down):  8.100E-03 0.000E+00

     total cpu time spent up to now is       54.1 secs

     total energy              =    -412.56711799 Ry
     estimated scf accuracy    <       0.00000293 Ry

     iteration # 10     ecut=    20.00 Ry     beta= 0.70
     Davidson diagonalization with overlap
     ethr =  2.52E-10,  avg # of iterations =  3.0

     negative rho (up, down):  8.097E-03 0.000E+00

     total cpu time spent up to now is       61.2 secs

     total energy              =    -412.56711830 Ry
     estimated scf accuracy    <       0.00000014 Ry

     iteration # 11     ecut=    20.00 Ry     beta= 0.70
     Davidson diagonalization with overlap
     ethr =  1.42E-10,  avg # of iterations =  2.0

     negative rho (up, down):  8.096E-03 0.000E+00

     total cpu time spent up to now is       65.9 secs

     End of self-consistent calculation

     Number of k-points >= 100: set verbosity='high' to print the bands.

     highest occupied level (ev):    -2.2235

!    total energy              =    -412.56711830 Ry
     estimated scf accuracy    <       0.00000002 Ry

     The total energy is the sum of the following terms:
     one-electron contribution =    -288.18138042 Ry
     hartree contribution      =     178.12655990 Ry
     xc contribution           =    -100.96770551 Ry
     ewald contribution        =    -201.54459227 Ry

     convergence has been achieved in  11 iterations

     Forces acting on atoms (cartesian axes, Ry/au):

     atom    1 type  2   force =    -0.03451137    0.06223512    0.03233116
     atom    2 type  2   force =     0.03451137   -0.06223512   -0.03233116
     atom    3 type  2   force =    -0.03664151   -0.06100529    0.03233116
     atom    4 type  2   force =     0.03664151    0.06100529   -0.03233116
     atom    5 type  2   force =     0.07115288   -0.00122983    0.03233116
     atom    6 type  2   force =    -0.07115288    0.00122983   -0.03233116
     atom    7 type  2   force =    -0.03317136    0.02441621   -0.01936697
     atom    8 type  2   force =     0.03317136   -0.02441621    0.01936697
     atom    9 type  2   force =    -0.00455938   -0.04093535   -0.01936697
     atom   10 type  2   force =     0.00455938    0.04093535    0.01936697
     atom   11 type  2   force =     0.03773074    0.01651914   -0.01936697
     atom   12 type  2   force =    -0.03773074   -0.01651914    0.01936697
     atom   13 type  1   force =     0.00248814   -0.02507634   -0.05141640
     atom   14 type  1   force =    -0.00248814    0.02507634    0.05141640
     atom   15 type  1   force =     0.02047268    0.01469296   -0.05141640
     atom   16 type  1   force =    -0.02047268   -0.01469296    0.05141640
     atom   17 type  1   force =    -0.02296082    0.01038338   -0.05141640
     atom   18 type  1   force =     0.02296082   -0.01038338    0.05141640
     atom   19 type  1   force =     0.02945077   -0.04493463    0.00986307
     atom   20 type  1   force =    -0.02945077    0.04493463   -0.00986307
     atom   21 type  1   force =     0.02418915    0.04797243    0.00986307
     atom   22 type  1   force =    -0.02418915   -0.04797243   -0.00986307
     atom   23 type  1   force =    -0.05363992   -0.00303780    0.00986307
     atom   24 type  1   force =     0.05363992    0.00303780   -0.00986307
     atom   25 type  1   force =    -0.01399522   -0.00289563    0.01276182
     atom   26 type  1   force =     0.01399522    0.00289563   -0.01276182
     atom   27 type  1   force =     0.00950530   -0.01067240    0.01276182
     atom   28 type  1   force =    -0.00950530    0.01067240   -0.01276182
     atom   29 type  1   force =     0.00448992    0.01356803    0.01276182
     atom   30 type  1   force =    -0.00448992   -0.01356803   -0.01276182
     atom   31 type  1   force =    -0.02906051   -0.00887843    0.01616063
     atom   32 type  1   force =     0.02906051    0.00887843   -0.01616063
     atom   33 type  1   force =     0.02221920   -0.02072792    0.01616063
     atom   34 type  1   force =    -0.02221920    0.02072792   -0.01616063
     atom   35 type  1   force =     0.00684131    0.02960635    0.01616063
     atom   36 type  1   force =    -0.00684131   -0.02960635   -0.01616063

     Total force =     0.309792     Total SCF correction =     0.000212


     Computing stress (Cartesian axis) and pressure

          total   stress  (Ry/bohr**3)                   (kbar)     P=     -443.77
  -0.00309053   0.00000000   0.00000000         -454.63        0.00        0.00
  -0.00000000  -0.00309053  -0.00000000           -0.00     -454.63       -0.00
   0.00000000  -0.00000000  -0.00286890            0.00       -0.00     -422.03


     Writing all to output data dir ./iceII_2/iceII_2.save/ :
     XML data file, charge density, pseudopotentials, collected wavefunctions

     init_run     :      2.39s CPU      2.48s WALL (       1 calls)
     electrons    :     60.56s CPU     63.21s WALL (       1 calls)
     forces       :      0.30s CPU      0.32s WALL (       1 calls)
     stress       :      3.65s CPU      3.67s WALL (       1 calls)

     Called by init_run:
     wfcinit      :      2.24s CPU      2.29s WALL (       1 calls)
     potinit      :      0.01s CPU      0.02s WALL (       1 calls)
     hinit0       :      0.11s CPU      0.13s WALL (       1 calls)

     Called by electrons:
     c_bands      :     54.29s CPU     56.81s WALL (      11 calls)
     sum_band     :      6.18s CPU      6.28s WALL (      11 calls)
     v_of_rho     :      0.06s CPU      0.07s WALL (      12 calls)
     newd         :      0.01s CPU      0.01s WALL (      12 calls)
     mix_rho      :      0.01s CPU      0.01s WALL (      11 calls)

     Called by c_bands:
     init_us_2    :      0.41s CPU      0.44s WALL (    2175 calls)
     cegterg      :     52.86s CPU     54.23s WALL (     957 calls)

     Called by *egterg:
     cdiaghg      :     12.08s CPU     12.26s WALL (    3215 calls)
     h_psi        :     36.40s CPU     37.45s WALL (    3302 calls)
     s_psi        :      1.29s CPU      1.32s WALL (    3302 calls)
     g_psi        :      0.07s CPU      0.07s WALL (    2258 calls)

     Called by h_psi:
     h_psi:calbec :      1.72s CPU      1.75s WALL (    3302 calls)
     vloc_psi     :     33.17s CPU     34.16s WALL (    3302 calls)
     add_vuspsi   :      1.36s CPU      1.38s WALL (    3302 calls)

     General routines
     calbec       :      2.48s CPU      2.52s WALL (    4694 calls)
     fft          :      0.14s CPU      0.15s WALL (     140 calls)
     ffts         :      0.00s CPU      0.00s WALL (      11 calls)
     fftw         :     36.05s CPU     37.06s WALL (  326646 calls)

     Parallel routines

     PWSCF        :   1m 9.27s CPU   1m12.90s WALL


   This run was terminated on:  15: 2:43  19Mar2026            

=------------------------------------------------------------------------------=
   JOB DONE.
=------------------------------------------------------------------------------=
