
     Program PWSCF v.7.3.1 starts on 19Mar2026 at 14:57:44 

     This program is part of the open-source Quantum ESPRESSO suite
     for quantum simulation of materials; please cite
         "P. Giannozzi et al., J. Phys.:Condens. Matter 21 395502 (2009);
         "P. Giannozzi et al., J. Phys.:Condens. Matter 29 465901 (2017);
         "P. Giannozzi et al., J. Chem. Phys. 152 154105 (2020);
          URL http://www.quantum-espresso.org", 
     in publications or presentations arising from this work. More details at
     http://www.quantum-espresso.org/quote

     Parallel version (MPI), running on   128 processors

     MPI processes distributed on     1 nodes
     242917 MiB available memory on the printing compute node when the environment starts

     Waiting for input...
     Reading input from standard input

     Current dimensions of program PWSCF are:
     Max number of different atomic species (ntypx) = 10
     Max number of k-points (npk) =  40000
     Max angular momentum in pseudopotentials (lmaxx) =  4

     K-points division:     npool     =       8
     R & G space division:  proc/nbgrp/npool/nimage =      16
     Subspace diagonalization in iterative solution of the eigenvalue problem:
     a serial algorithm will be used


     Parallelization info
     --------------------
     sticks:   dense  smooth     PW     G-vecs:    dense   smooth      PW
     Min          78      78     27                 1547     1547     305
     Max          79      79     28                 1550     1550     306
     Sum        1253    1253    433                24773    24773    4885

     Using Slab Decomposition



     bravais-lattice index     =            5
     lattice parameter (alat)  =      14.7021  a.u.
     unit-cell volume          =    2053.1832 (a.u.)^3
     number of atoms/cell      =           36
     number of atomic types    =            2
     number of electrons       =        96.00
     number of Kohn-Sham states=           48
     kinetic-energy cutoff     =      20.0000  Ry
     charge density cutoff     =      80.0000  Ry
     scf convergence threshold =      1.0E-07
     mixing beta               =       0.7000
     number of iterations used =            8  plain     mixing
     Exchange-correlation=  SLA  PW   PBE  PBE
                           (   1   4   3   4   0   0   0)

     celldm(1)=  14.702068  celldm(2)=   0.000000  celldm(3)=   0.000000
     celldm(4)=  -0.392337  celldm(5)=   0.000000  celldm(6)=   0.000000

     crystal axes: (cart. coord. in units of alat)
               a(1) = (   0.834367  -0.481722   0.267909 )  
               a(2) = (   0.000000   0.963444   0.267909 )  
               a(3) = (  -0.834367  -0.481722   0.267909 )  

     reciprocal axes: (cart. coord. in units 2 pi/alat)
               b(1) = (  0.599257 -0.345981  1.244203 )  
               b(2) = ( -0.000000  0.691962  1.244203 )  
               b(3) = ( -0.599257 -0.345981  1.244203 )  


     PseudoPot. # 1 for H  read from file:
     ./H.pbe-van_ak.UPF
     MD5 check sum: 077eb6d537518a38cb46c6de387227b7
     Pseudo is Ultrasoft, Zval =  1.0
     Generated by new atomic code, or converted to UPF format
     Using radial grid of  615 points,  1 beta functions with: 
                l(1) =   0
     Q(r) pseudized with  8 coefficients,  rinner =    0.800

     PseudoPot. # 2 for O  read from file:
     ./O.pbe-van_ak.UPF
     MD5 check sum: 78c19812648e8988a0fe644b0f25305e
     Pseudo is Ultrasoft, Zval =  6.0
     Generated by new atomic code, or converted to UPF format
     Using radial grid of  737 points,  4 beta functions with: 
                l(1) =   0
                l(2) =   0
                l(3) =   1
                l(4) =   1
     Q(r) pseudized with  8 coefficients,  rinner =    0.800   0.800   0.800


     atomic species   valence    mass     pseudopotential
     H                 1.00     1.00800     H ( 1.00)
     O                 6.00    16.00000     O ( 1.00)

      6 Sym. Ops., with inversion, found



   Cartesian axes

     site n.     atom                  positions (alat units)
         1        O      tau(   1) = (  -0.4847673  -0.5197781   0.3083633  )
         2        O      tau(   2) = (   0.4847673   0.5197782   0.4953638  )
         3        O      tau(   3) = (   0.6925247  -0.1599317   0.3083633  )
         4        O      tau(   4) = (  -0.6925248   0.1599317   0.4953638  )
         5        O      tau(   5) = (  -0.2077574   0.6797099   0.3083633  )
         6        O      tau(   6) = (   0.2077574  -0.6797099   0.4953638  )
         7        O      tau(   7) = (   0.1218176   0.3323883   0.4179381  )
         8        O      tau(   8) = (  -0.1218176  -0.3323883   0.3857890  )
         9        O      tau(   9) = (  -0.3487655  -0.0606970   0.4179381  )
        10        O      tau(  10) = (   0.3487655   0.0606970   0.3857890  )
        11        O      tau(  11) = (   0.2269479  -0.2716913   0.4179381  )
        12        O      tau(  12) = (  -0.2269479   0.2716912   0.3857890  )
        13        H      tau(  13) = (  -0.5381668  -0.4032014   0.2796970  )
        14        H      tau(  14) = (   0.5381668   0.4032014   0.5240301  )
        15        H      tau(  15) = (   0.6182661  -0.2644654   0.2796970  )
        16        H      tau(  16) = (  -0.6182661   0.2644654   0.5240301  )
        17        H      tau(  17) = (  -0.0800993   0.6676668   0.2796970  )
        18        H      tau(  18) = (   0.0800993  -0.6676668   0.5240301  )
        19        H      tau(  19) = (  -0.4872704  -0.4817221   0.4326731  )
        20        H      tau(  20) = (   0.4872704   0.4817221   0.3710540  )
        21        H      tau(  21) = (   0.6608188  -0.1811275   0.4326731  )
        22        H      tau(  22) = (  -0.6608188   0.1811275   0.3710540  )
        23        H      tau(  23) = (  -0.1735484   0.6628496   0.4326731  )
        24        H      tau(  24) = (   0.1735484  -0.6628496   0.3710540  )
        25        H      tau(  25) = (   0.2703349  -0.1502973   0.4058822  )
        26        H      tau(  26) = (  -0.2703350   0.1502973   0.3978449  )
        27        H      tau(  27) = (  -0.0050062   0.3092656   0.4058822  )
        28        H      tau(  28) = (   0.0050062  -0.3092656   0.3978449  )
        29        H      tau(  29) = (  -0.2653287  -0.1589683   0.4058822  )
        30        H      tau(  30) = (   0.2653287   0.1589683   0.3978449  )
        31        H      tau(  31) = (   0.3178939  -0.3347969   0.3493534  )
        32        H      tau(  32) = (  -0.3178939   0.3347969   0.4543737  )
        33        H      tau(  33) = (   0.1309957   0.4427026   0.3493534  )
        34        H      tau(  34) = (  -0.1309956  -0.4427026   0.4543737  )
        35        H      tau(  35) = (  -0.4488895  -0.1079057   0.3493534  )
        36        H      tau(  36) = (   0.4488895   0.1079057   0.4543737  )

     number of k points=   226

     Number of k-points >= 100: set verbosity='high' to print them.

     Dense  grid:    24773 G-vectors     FFT dimensions: (  45,  45,  45)

     Estimated max dynamical RAM per process >       7.47 MB

     Estimated total dynamical RAM >     913.98 MB

     Initial potential from superposition of free atoms

     starting charge      95.9998, renormalised to      96.0000

     negative rho (up, down):  7.718E-04 0.000E+00
     Starting wfcs are   72 randomized atomic wfcs

     total cpu time spent up to now is        1.2 secs

     per-process dynamical memory:    13.8 Mb

     Self-consistent Calculation

     iteration #  1     ecut=    20.00 Ry     beta= 0.70
     Davidson diagonalization with overlap
     ethr =  1.00E-02,  avg # of iterations =  2.0

     negative rho (up, down):  8.257E-03 0.000E+00

     total cpu time spent up to now is        3.0 secs

     total energy              =    -411.46018794 Ry
     estimated scf accuracy    <       2.93513957 Ry

     iteration #  2     ecut=    20.00 Ry     beta= 0.70
     Davidson diagonalization with overlap
     ethr =  3.06E-03,  avg # of iterations =  2.0

     negative rho (up, down):  6.315E-03 0.000E+00

     total cpu time spent up to now is        5.0 secs

     total energy              =    -412.32911462 Ry
     estimated scf accuracy    <       1.56799928 Ry

     iteration #  3     ecut=    20.00 Ry     beta= 0.70
     Davidson diagonalization with overlap
     ethr =  1.63E-03,  avg # of iterations =  2.0

     negative rho (up, down):  8.264E-03 0.000E+00

     total cpu time spent up to now is        6.8 secs

     total energy              =    -412.55655132 Ry
     estimated scf accuracy    <       0.02968707 Ry

     iteration #  4     ecut=    20.00 Ry     beta= 0.70
     Davidson diagonalization with overlap
     ethr =  3.09E-05,  avg # of iterations =  3.0

     negative rho (up, down):  8.107E-03 0.000E+00

     total cpu time spent up to now is        9.0 secs

     total energy              =    -412.56603347 Ry
     estimated scf accuracy    <       0.02022178 Ry

     iteration #  5     ecut=    20.00 Ry     beta= 0.70
     Davidson diagonalization with overlap
     ethr =  2.11E-05,  avg # of iterations =  1.0

     negative rho (up, down):  8.160E-03 0.000E+00

     total cpu time spent up to now is       10.3 secs

     total energy              =    -412.56665448 Ry
     estimated scf accuracy    <       0.00353725 Ry

     iteration #  6     ecut=    20.00 Ry     beta= 0.70
     Davidson diagonalization with overlap
     ethr =  3.68E-06,  avg # of iterations =  2.0

     negative rho (up, down):  8.147E-03 0.000E+00

     total cpu time spent up to now is       11.9 secs

     total energy              =    -412.56644215 Ry
     estimated scf accuracy    <       0.00122134 Ry

     iteration #  7     ecut=    20.00 Ry     beta= 0.70
     Davidson diagonalization with overlap
     ethr =  1.27E-06,  avg # of iterations =  2.0

     negative rho (up, down):  8.114E-03 0.000E+00

     total cpu time spent up to now is       13.7 secs

     total energy              =    -412.56665514 Ry
     estimated scf accuracy    <       0.00001616 Ry

     iteration #  8     ecut=    20.00 Ry     beta= 0.70
     Davidson diagonalization with overlap
     ethr =  1.68E-08,  avg # of iterations =  2.6

     negative rho (up, down):  8.104E-03 0.000E+00

     total cpu time spent up to now is       15.7 secs

     total energy              =    -412.56666197 Ry
     estimated scf accuracy    <       0.00000024 Ry

     iteration #  9     ecut=    20.00 Ry     beta= 0.70
     Davidson diagonalization with overlap
     ethr =  2.51E-10,  avg # of iterations =  4.1

     negative rho (up, down):  8.100E-03 0.000E+00

     total cpu time spent up to now is       18.4 secs

     total energy              =    -412.56666147 Ry
     estimated scf accuracy    <       0.00000297 Ry

     iteration # 10     ecut=    20.00 Ry     beta= 0.70
     Davidson diagonalization with overlap
     ethr =  2.51E-10,  avg # of iterations =  3.0

     negative rho (up, down):  8.097E-03 0.000E+00

     total cpu time spent up to now is       20.7 secs

     total energy              =    -412.56666179 Ry
     estimated scf accuracy    <       0.00000014 Ry

     iteration # 11     ecut=    20.00 Ry     beta= 0.70
     Davidson diagonalization with overlap
     ethr =  1.46E-10,  avg # of iterations =  2.0

     negative rho (up, down):  8.096E-03 0.000E+00

     total cpu time spent up to now is       22.4 secs

     End of self-consistent calculation

     Number of k-points >= 100: set verbosity='high' to print the bands.

     highest occupied level (ev):    -2.2268

!    total energy              =    -412.56666178 Ry
     estimated scf accuracy    <       0.00000002 Ry

     The total energy is the sum of the following terms:
     one-electron contribution =    -288.18045790 Ry
     hartree contribution      =     178.12597050 Ry
     xc contribution           =    -100.96758211 Ry
     ewald contribution        =    -201.54459227 Ry

     convergence has been achieved in  11 iterations

     Forces acting on atoms (cartesian axes, Ry/au):

     atom    1 type  2   force =    -0.03450717    0.06222887    0.03231682
     atom    2 type  2   force =     0.03450717   -0.06222887   -0.03231682
     atom    3 type  2   force =    -0.03663819   -0.06099852    0.03231682
     atom    4 type  2   force =     0.03663819    0.06099852   -0.03231682
     atom    5 type  2   force =     0.07114537   -0.00123034    0.03231682
     atom    6 type  2   force =    -0.07114537    0.00123034   -0.03231682
     atom    7 type  2   force =    -0.03318331    0.02443385   -0.01937921
     atom    8 type  2   force =     0.03318331   -0.02443385    0.01937921
     atom    9 type  2   force =    -0.00456868   -0.04095452   -0.01937921
     atom   10 type  2   force =     0.00456868    0.04095452    0.01937921
     atom   11 type  2   force =     0.03775199    0.01652066   -0.01937921
     atom   12 type  2   force =    -0.03775199   -0.01652066    0.01937921
     atom   13 type  1   force =     0.00249114   -0.02507836   -0.05141311
     atom   14 type  1   force =    -0.00249114    0.02507836    0.05141311
     atom   15 type  1   force =     0.02047292    0.01469657   -0.05141311
     atom   16 type  1   force =    -0.02047292   -0.01469657    0.05141311
     atom   17 type  1   force =    -0.02296406    0.01038178   -0.05141311
     atom   18 type  1   force =     0.02296406   -0.01038178    0.05141311
     atom   19 type  1   force =     0.02944984   -0.04492573    0.00986172
     atom   20 type  1   force =    -0.02944984    0.04492573   -0.00986172
     atom   21 type  1   force =     0.02418190    0.04796717    0.00986172
     atom   22 type  1   force =    -0.02418190   -0.04796717   -0.00986172
     atom   23 type  1   force =    -0.05363174   -0.00304144    0.00986172
     atom   24 type  1   force =     0.05363174    0.00304144   -0.00986172
     atom   25 type  1   force =    -0.01399996   -0.00289763    0.01276308
     atom   26 type  1   force =     0.01399996    0.00289763   -0.01276308
     atom   27 type  1   force =     0.00950940   -0.01067550    0.01276308
     atom   28 type  1   force =    -0.00950940    0.01067550   -0.01276308
     atom   29 type  1   force =     0.00449056    0.01357314    0.01276308
     atom   30 type  1   force =    -0.00449056   -0.01357314   -0.01276308
     atom   31 type  1   force =    -0.02906555   -0.00887317    0.01615922
     atom   32 type  1   force =     0.02906555    0.00887317   -0.01615922
     atom   33 type  1   force =     0.02221717   -0.02073492    0.01615922
     atom   34 type  1   force =    -0.02221717    0.02073492   -0.01615922
     atom   35 type  1   force =     0.00684838    0.02960809    0.01615922
     atom   36 type  1   force =    -0.00684838   -0.02960809   -0.01615922

     Total force =     0.309785     Total SCF correction =     0.000215


     Computing stress (Cartesian axis) and pressure

          total   stress  (Ry/bohr**3)                   (kbar)     P=     -443.89
  -0.00309178  -0.00000000  -0.00000000         -454.82       -0.00       -0.00
   0.00000000  -0.00309178  -0.00000000            0.00     -454.82       -0.00
   0.00000000  -0.00000000  -0.00286891            0.00       -0.00     -422.03


     Writing all to output data dir ./iceII_2/iceII_2.save/ :
     XML data file, charge density, pseudopotentials, collected wavefunctions

     init_run     :      0.89s CPU      0.96s WALL (       1 calls)
     electrons    :     20.32s CPU     21.25s WALL (       1 calls)
     forces       :      0.11s CPU      0.13s WALL (       1 calls)
     stress       :      1.24s CPU      1.25s WALL (       1 calls)

     Called by init_run:
     wfcinit      :      0.74s CPU      0.77s WALL (       1 calls)
     potinit      :      0.01s CPU      0.03s WALL (       1 calls)
     hinit0       :      0.13s CPU      0.13s WALL (       1 calls)

     Called by electrons:
     c_bands      :     18.14s CPU     18.98s WALL (      11 calls)
     sum_band     :      2.10s CPU      2.13s WALL (      11 calls)
     v_of_rho     :      0.05s CPU      0.07s WALL (      12 calls)
     newd         :      0.01s CPU      0.01s WALL (      12 calls)
     mix_rho      :      0.01s CPU      0.01s WALL (      11 calls)

     Called by c_bands:
     init_us_2    :      0.13s CPU      0.15s WALL (     725 calls)
     cegterg      :     17.66s CPU     18.17s WALL (     319 calls)

     Called by *egterg:
     cdiaghg      :      4.01s CPU      4.09s WALL (    1070 calls)
     h_psi        :     12.16s CPU     12.54s WALL (    1099 calls)
     s_psi        :      0.41s CPU      0.42s WALL (    1099 calls)
     g_psi        :      0.02s CPU      0.02s WALL (     751 calls)

     Called by h_psi:
     h_psi:calbec :      0.57s CPU      0.59s WALL (    1099 calls)
     vloc_psi     :     11.10s CPU     11.45s WALL (    1099 calls)
     add_vuspsi   :      0.43s CPU      0.44s WALL (    1099 calls)

     General routines
     calbec       :      0.87s CPU      0.89s WALL (    1563 calls)
     fft          :      0.14s CPU      0.14s WALL (     140 calls)
     ffts         :      0.00s CPU      0.00s WALL (      11 calls)
     fftw         :     12.07s CPU     12.42s WALL (  108882 calls)

     Parallel routines

     PWSCF        :     23.79s CPU     25.14s WALL


   This run was terminated on:  14:58: 9  19Mar2026            

=------------------------------------------------------------------------------=
   JOB DONE.
=------------------------------------------------------------------------------=
