
     Program PWSCF v.7.3.1 starts on 19Mar2026 at 14:58:48 

     This program is part of the open-source Quantum ESPRESSO suite
     for quantum simulation of materials; please cite
         "P. Giannozzi et al., J. Phys.:Condens. Matter 21 395502 (2009);
         "P. Giannozzi et al., J. Phys.:Condens. Matter 29 465901 (2017);
         "P. Giannozzi et al., J. Chem. Phys. 152 154105 (2020);
          URL http://www.quantum-espresso.org", 
     in publications or presentations arising from this work. More details at
     http://www.quantum-espresso.org/quote

     Parallel version (MPI), running on   128 processors

     MPI processes distributed on     1 nodes
     242533 MiB available memory on the printing compute node when the environment starts

     Waiting for input...
     Reading input from standard input

     Current dimensions of program PWSCF are:
     Max number of different atomic species (ntypx) = 10
     Max number of k-points (npk) =  40000
     Max angular momentum in pseudopotentials (lmaxx) =  4

     K-points division:     npool     =       8
     R & G space division:  proc/nbgrp/npool/nimage =      16
     Subspace diagonalization in iterative solution of the eigenvalue problem:
     a serial algorithm will be used


     Parallelization info
     --------------------
     sticks:   dense  smooth     PW     G-vecs:    dense   smooth      PW
     Min          78      78     27                 1547     1547     309
     Max          79      79     28                 1550     1550     310
     Sum        1253    1253    437                24773    24773    4945

     Using Slab Decomposition



     bravais-lattice index     =            5
     lattice parameter (alat)  =      14.7021  a.u.
     unit-cell volume          =    2053.1832 (a.u.)^3
     number of atoms/cell      =           36
     number of atomic types    =            2
     number of electrons       =        96.00
     number of Kohn-Sham states=           48
     kinetic-energy cutoff     =      20.0000  Ry
     charge density cutoff     =      80.0000  Ry
     scf convergence threshold =      1.0E-07
     mixing beta               =       0.7000
     number of iterations used =            8  plain     mixing
     Exchange-correlation=  SLA  PW   PBE  PBE
                           (   1   4   3   4   0   0   0)

     celldm(1)=  14.702068  celldm(2)=   0.000000  celldm(3)=   0.000000
     celldm(4)=  -0.392337  celldm(5)=   0.000000  celldm(6)=   0.000000

     crystal axes: (cart. coord. in units of alat)
               a(1) = (   0.834367  -0.481722   0.267909 )  
               a(2) = (   0.000000   0.963444   0.267909 )  
               a(3) = (  -0.834367  -0.481722   0.267909 )  

     reciprocal axes: (cart. coord. in units 2 pi/alat)
               b(1) = (  0.599257 -0.345981  1.244203 )  
               b(2) = ( -0.000000  0.691962  1.244203 )  
               b(3) = ( -0.599257 -0.345981  1.244203 )  


     PseudoPot. # 1 for H  read from file:
     ./H.pbe-van_ak.UPF
     MD5 check sum: 077eb6d537518a38cb46c6de387227b7
     Pseudo is Ultrasoft, Zval =  1.0
     Generated by new atomic code, or converted to UPF format
     Using radial grid of  615 points,  1 beta functions with: 
                l(1) =   0
     Q(r) pseudized with  8 coefficients,  rinner =    0.800

     PseudoPot. # 2 for O  read from file:
     ./O.pbe-van_ak.UPF
     MD5 check sum: 78c19812648e8988a0fe644b0f25305e
     Pseudo is Ultrasoft, Zval =  6.0
     Generated by new atomic code, or converted to UPF format
     Using radial grid of  737 points,  4 beta functions with: 
                l(1) =   0
                l(2) =   0
                l(3) =   1
                l(4) =   1
     Q(r) pseudized with  8 coefficients,  rinner =    0.800   0.800   0.800


     atomic species   valence    mass     pseudopotential
     H                 1.00     1.00800     H ( 1.00)
     O                 6.00    16.00000     O ( 1.00)

      6 Sym. Ops., with inversion, found



   Cartesian axes

     site n.     atom                  positions (alat units)
         1        O      tau(   1) = (  -0.4847673  -0.5197781   0.3083633  )
         2        O      tau(   2) = (   0.4847673   0.5197782   0.4953638  )
         3        O      tau(   3) = (   0.6925247  -0.1599317   0.3083633  )
         4        O      tau(   4) = (  -0.6925248   0.1599317   0.4953638  )
         5        O      tau(   5) = (  -0.2077574   0.6797099   0.3083633  )
         6        O      tau(   6) = (   0.2077574  -0.6797099   0.4953638  )
         7        O      tau(   7) = (   0.1218176   0.3323883   0.4179381  )
         8        O      tau(   8) = (  -0.1218176  -0.3323883   0.3857890  )
         9        O      tau(   9) = (  -0.3487655  -0.0606970   0.4179381  )
        10        O      tau(  10) = (   0.3487655   0.0606970   0.3857890  )
        11        O      tau(  11) = (   0.2269479  -0.2716913   0.4179381  )
        12        O      tau(  12) = (  -0.2269479   0.2716912   0.3857890  )
        13        H      tau(  13) = (  -0.5381668  -0.4032014   0.2796970  )
        14        H      tau(  14) = (   0.5381668   0.4032014   0.5240301  )
        15        H      tau(  15) = (   0.6182661  -0.2644654   0.2796970  )
        16        H      tau(  16) = (  -0.6182661   0.2644654   0.5240301  )
        17        H      tau(  17) = (  -0.0800993   0.6676668   0.2796970  )
        18        H      tau(  18) = (   0.0800993  -0.6676668   0.5240301  )
        19        H      tau(  19) = (  -0.4872704  -0.4817221   0.4326731  )
        20        H      tau(  20) = (   0.4872704   0.4817221   0.3710540  )
        21        H      tau(  21) = (   0.6608188  -0.1811275   0.4326731  )
        22        H      tau(  22) = (  -0.6608188   0.1811275   0.3710540  )
        23        H      tau(  23) = (  -0.1735484   0.6628496   0.4326731  )
        24        H      tau(  24) = (   0.1735484  -0.6628496   0.3710540  )
        25        H      tau(  25) = (   0.2703349  -0.1502973   0.4058822  )
        26        H      tau(  26) = (  -0.2703350   0.1502973   0.3978449  )
        27        H      tau(  27) = (  -0.0050062   0.3092656   0.4058822  )
        28        H      tau(  28) = (   0.0050062  -0.3092656   0.3978449  )
        29        H      tau(  29) = (  -0.2653287  -0.1589683   0.4058822  )
        30        H      tau(  30) = (   0.2653287   0.1589683   0.3978449  )
        31        H      tau(  31) = (   0.3178939  -0.3347969   0.3493534  )
        32        H      tau(  32) = (  -0.3178939   0.3347969   0.4543737  )
        33        H      tau(  33) = (   0.1309957   0.4427026   0.3493534  )
        34        H      tau(  34) = (  -0.1309956  -0.4427026   0.4543737  )
        35        H      tau(  35) = (  -0.4488895  -0.1079057   0.3493534  )
        36        H      tau(  36) = (   0.4488895   0.1079057   0.4543737  )

     number of k points=   371

     Number of k-points >= 100: set verbosity='high' to print them.

     Dense  grid:    24773 G-vectors     FFT dimensions: (  45,  45,  45)

     Estimated max dynamical RAM per process >      10.02 MB

     Estimated total dynamical RAM >       1.21 GB

     Initial potential from superposition of free atoms

     starting charge      95.9998, renormalised to      96.0000

     negative rho (up, down):  7.718E-04 0.000E+00
     Starting wfcs are   72 randomized atomic wfcs

     total cpu time spent up to now is        1.7 secs

     per-process dynamical memory:    16.8 Mb

     Self-consistent Calculation

     iteration #  1     ecut=    20.00 Ry     beta= 0.70
     Davidson diagonalization with overlap
     ethr =  1.00E-02,  avg # of iterations =  2.0

     negative rho (up, down):  8.256E-03 0.000E+00

     total cpu time spent up to now is        4.5 secs

     total energy              =    -411.45998844 Ry
     estimated scf accuracy    <       2.93501033 Ry

     iteration #  2     ecut=    20.00 Ry     beta= 0.70
     Davidson diagonalization with overlap
     ethr =  3.06E-03,  avg # of iterations =  2.0

     negative rho (up, down):  6.315E-03 0.000E+00

     total cpu time spent up to now is        7.6 secs

     total energy              =    -412.32885322 Ry
     estimated scf accuracy    <       1.56790785 Ry

     iteration #  3     ecut=    20.00 Ry     beta= 0.70
     Davidson diagonalization with overlap
     ethr =  1.63E-03,  avg # of iterations =  2.0

     negative rho (up, down):  8.264E-03 0.000E+00

     total cpu time spent up to now is       10.6 secs

     total energy              =    -412.55628525 Ry
     estimated scf accuracy    <       0.02968378 Ry

     iteration #  4     ecut=    20.00 Ry     beta= 0.70
     Davidson diagonalization with overlap
     ethr =  3.09E-05,  avg # of iterations =  3.0

     negative rho (up, down):  8.107E-03 0.000E+00

     total cpu time spent up to now is       14.2 secs

     total energy              =    -412.56576590 Ry
     estimated scf accuracy    <       0.02021600 Ry

     iteration #  5     ecut=    20.00 Ry     beta= 0.70
     Davidson diagonalization with overlap
     ethr =  2.11E-05,  avg # of iterations =  1.0

     negative rho (up, down):  8.159E-03 0.000E+00

     total cpu time spent up to now is       16.3 secs

     total energy              =    -412.56638780 Ry
     estimated scf accuracy    <       0.00353656 Ry

     iteration #  6     ecut=    20.00 Ry     beta= 0.70
     Davidson diagonalization with overlap
     ethr =  3.68E-06,  avg # of iterations =  2.0

     negative rho (up, down):  8.146E-03 0.000E+00

     total cpu time spent up to now is       18.9 secs

     total energy              =    -412.56617357 Ry
     estimated scf accuracy    <       0.00122415 Ry

     iteration #  7     ecut=    20.00 Ry     beta= 0.70
     Davidson diagonalization with overlap
     ethr =  1.28E-06,  avg # of iterations =  2.0

     negative rho (up, down):  8.114E-03 0.000E+00

     total cpu time spent up to now is       21.8 secs

     total energy              =    -412.56638714 Ry
     estimated scf accuracy    <       0.00001616 Ry

     iteration #  8     ecut=    20.00 Ry     beta= 0.70
     Davidson diagonalization with overlap
     ethr =  1.68E-08,  avg # of iterations =  2.7

     negative rho (up, down):  8.104E-03 0.000E+00

     total cpu time spent up to now is       25.1 secs

     total energy              =    -412.56639398 Ry
     estimated scf accuracy    <       0.00000024 Ry

     iteration #  9     ecut=    20.00 Ry     beta= 0.70
     Davidson diagonalization with overlap
     ethr =  2.53E-10,  avg # of iterations =  4.1

     negative rho (up, down):  8.099E-03 0.000E+00

     total cpu time spent up to now is       29.4 secs

     total energy              =    -412.56639348 Ry
     estimated scf accuracy    <       0.00000294 Ry

     iteration # 10     ecut=    20.00 Ry     beta= 0.70
     Davidson diagonalization with overlap
     ethr =  2.53E-10,  avg # of iterations =  3.0

     negative rho (up, down):  8.097E-03 0.000E+00

     total cpu time spent up to now is       33.2 secs

     total energy              =    -412.56639380 Ry
     estimated scf accuracy    <       0.00000014 Ry

     iteration # 11     ecut=    20.00 Ry     beta= 0.70
     Davidson diagonalization with overlap
     ethr =  1.43E-10,  avg # of iterations =  2.0

     negative rho (up, down):  8.096E-03 0.000E+00

     total cpu time spent up to now is       35.8 secs

     End of self-consistent calculation

     Number of k-points >= 100: set verbosity='high' to print the bands.

     highest occupied level (ev):    -2.2250

!    total energy              =    -412.56639380 Ry
     estimated scf accuracy    <       0.00000002 Ry

     The total energy is the sum of the following terms:
     one-electron contribution =    -288.17989847 Ry
     hartree contribution      =     178.12561163 Ry
     xc contribution           =    -100.96751468 Ry
     ewald contribution        =    -201.54459227 Ry

     convergence has been achieved in  11 iterations

     Forces acting on atoms (cartesian axes, Ry/au):

     atom    1 type  2   force =    -0.03450458    0.06224243    0.03233433
     atom    2 type  2   force =     0.03450458   -0.06224243   -0.03233433
     atom    3 type  2   force =    -0.03665123   -0.06100305    0.03233433
     atom    4 type  2   force =     0.03665123    0.06100305   -0.03233433
     atom    5 type  2   force =     0.07115581   -0.00123937    0.03233433
     atom    6 type  2   force =    -0.07115581    0.00123937   -0.03233433
     atom    7 type  2   force =    -0.03318954    0.02444021   -0.01937911
     atom    8 type  2   force =     0.03318954   -0.02444021    0.01937911
     atom    9 type  2   force =    -0.00457107   -0.04096309   -0.01937911
     atom   10 type  2   force =     0.00457107    0.04096309    0.01937911
     atom   11 type  2   force =     0.03776061    0.01652288   -0.01937911
     atom   12 type  2   force =    -0.03776061   -0.01652288    0.01937911
     atom   13 type  1   force =     0.00249240   -0.02508199   -0.05141258
     atom   14 type  1   force =    -0.00249240    0.02508199    0.05141258
     atom   15 type  1   force =     0.02047544    0.01469948   -0.05141258
     atom   16 type  1   force =    -0.02047544   -0.01469948    0.05141258
     atom   17 type  1   force =    -0.02296784    0.01038251   -0.05141258
     atom   18 type  1   force =     0.02296784   -0.01038251    0.05141258
     atom   19 type  1   force =     0.02945095   -0.04494410    0.00985820
     atom   20 type  1   force =    -0.02945095    0.04494410   -0.00985820
     atom   21 type  1   force =     0.02419725    0.04797732    0.00985820
     atom   22 type  1   force =    -0.02419725   -0.04797732   -0.00985820
     atom   23 type  1   force =    -0.05364820   -0.00303322    0.00985820
     atom   24 type  1   force =     0.05364820    0.00303322   -0.00985820
     atom   25 type  1   force =    -0.01400169   -0.00290612    0.01276417
     atom   26 type  1   force =     0.01400169    0.00290612   -0.01276417
     atom   27 type  1   force =     0.00951762   -0.01067276    0.01276417
     atom   28 type  1   force =    -0.00951762    0.01067276   -0.01276417
     atom   29 type  1   force =     0.00448407    0.01357888    0.01276417
     atom   30 type  1   force =    -0.00448407   -0.01357888   -0.01276417
     atom   31 type  1   force =    -0.02905949   -0.00887601    0.01616290
     atom   32 type  1   force =     0.02905949    0.00887601   -0.01616290
     atom   33 type  1   force =     0.02221659   -0.02072826    0.01616290
     atom   34 type  1   force =    -0.02221659    0.02072826   -0.01616290
     atom   35 type  1   force =     0.00684290    0.02960426    0.01616290
     atom   36 type  1   force =    -0.00684290   -0.02960426   -0.01616290

     Total force =     0.309835     Total SCF correction =     0.000213


     Computing stress (Cartesian axis) and pressure

          total   stress  (Ry/bohr**3)                   (kbar)     P=     -443.96
  -0.00309212  -0.00000000  -0.00000000         -454.87       -0.00       -0.00
   0.00000000  -0.00309212  -0.00000000            0.00     -454.87       -0.00
   0.00000000  -0.00000000  -0.00286977            0.00       -0.00     -422.16


     Writing all to output data dir ./iceII_2/iceII_2.save/ :
     XML data file, charge density, pseudopotentials, collected wavefunctions

     init_run     :      1.38s CPU      1.44s WALL (       1 calls)
     electrons    :     32.72s CPU     34.16s WALL (       1 calls)
     forces       :      0.17s CPU      0.18s WALL (       1 calls)
     stress       :      1.98s CPU      1.99s WALL (       1 calls)

     Called by init_run:
     wfcinit      :      1.22s CPU      1.26s WALL (       1 calls)
     potinit      :      0.01s CPU      0.02s WALL (       1 calls)
     hinit0       :      0.12s CPU      0.13s WALL (       1 calls)

     Called by electrons:
     c_bands      :     29.22s CPU     30.56s WALL (      11 calls)
     sum_band     :      3.41s CPU      3.48s WALL (      11 calls)
     v_of_rho     :      0.06s CPU      0.06s WALL (      12 calls)
     newd         :      0.01s CPU      0.01s WALL (      12 calls)
     mix_rho      :      0.01s CPU      0.01s WALL (      11 calls)

     Called by c_bands:
     init_us_2    :      0.22s CPU      0.24s WALL (    1175 calls)
     cegterg      :     28.67s CPU     29.36s WALL (     517 calls)

     Called by *egterg:
     cdiaghg      :      6.60s CPU      6.65s WALL (    1737 calls)
     h_psi        :     19.68s CPU     20.28s WALL (    1784 calls)
     s_psi        :      0.69s CPU      0.70s WALL (    1784 calls)
     g_psi        :      0.04s CPU      0.04s WALL (    1220 calls)

     Called by h_psi:
     h_psi:calbec :      0.94s CPU      0.96s WALL (    1784 calls)
     vloc_psi     :     17.94s CPU     18.51s WALL (    1784 calls)
     add_vuspsi   :      0.72s CPU      0.73s WALL (    1784 calls)

     General routines
     calbec       :      1.38s CPU      1.40s WALL (    2536 calls)
     fft          :      0.14s CPU      0.14s WALL (     140 calls)
     ffts         :      0.00s CPU      0.00s WALL (      11 calls)
     fftw         :     19.52s CPU     20.10s WALL (  176430 calls)

     Parallel routines

     PWSCF        :     37.82s CPU     39.87s WALL


   This run was terminated on:  14:59:28  19Mar2026            

=------------------------------------------------------------------------------=
   JOB DONE.
=------------------------------------------------------------------------------=
