
     Program PWSCF v.7.3.1 starts on 23Mar2026 at 17:57:38 

     This program is part of the open-source Quantum ESPRESSO suite
     for quantum simulation of materials; please cite
         "P. Giannozzi et al., J. Phys.:Condens. Matter 21 395502 (2009);
         "P. Giannozzi et al., J. Phys.:Condens. Matter 29 465901 (2017);
         "P. Giannozzi et al., J. Chem. Phys. 152 154105 (2020);
          URL http://www.quantum-espresso.org", 
     in publications or presentations arising from this work. More details at
     http://www.quantum-espresso.org/quote

     Parallel version (MPI), running on   128 processors

     MPI processes distributed on     1 nodes
     242875 MiB available memory on the printing compute node when the environment starts

     Waiting for input...
     Reading input from standard input

     Current dimensions of program PWSCF are:
     Max number of different atomic species (ntypx) = 10
     Max number of k-points (npk) =  40000
     Max angular momentum in pseudopotentials (lmaxx) =  4

     K-points division:     npool     =       4
     R & G space division:  proc/nbgrp/npool/nimage =      32
     Subspace diagonalization in iterative solution of the eigenvalue problem:
     a serial algorithm will be used


     Parallelization info
     --------------------
     sticks:   dense  smooth     PW     G-vecs:    dense   smooth      PW
     Min         178     178     52                 7402     7402    1180
     Max         179     179     53                 7404     7404    1182
     Sum        5703    5703   1675               236891   236891   37783

     Using Slab Decomposition



     bravais-lattice index     =            5
     lattice parameter (alat)  =      14.7021  a.u.
     unit-cell volume          =    2053.1832 (a.u.)^3
     number of atoms/cell      =           36
     number of atomic types    =            2
     number of electrons       =        96.00
     number of Kohn-Sham states=           48
     kinetic-energy cutoff     =      90.0000  Ry
     charge density cutoff     =     360.0000  Ry
     scf convergence threshold =      1.0E-07
     mixing beta               =       0.7000
     number of iterations used =            8  plain     mixing
     Exchange-correlation=  SLA  PW   PBE  PBE
                           (   1   4   3   4   0   0   0)

     celldm(1)=  14.702068  celldm(2)=   0.000000  celldm(3)=   0.000000
     celldm(4)=  -0.392337  celldm(5)=   0.000000  celldm(6)=   0.000000

     crystal axes: (cart. coord. in units of alat)
               a(1) = (   0.834367  -0.481722   0.267909 )  
               a(2) = (   0.000000   0.963444   0.267909 )  
               a(3) = (  -0.834367  -0.481722   0.267909 )  

     reciprocal axes: (cart. coord. in units 2 pi/alat)
               b(1) = (  0.599257 -0.345981  1.244203 )  
               b(2) = ( -0.000000  0.691962  1.244203 )  
               b(3) = ( -0.599257 -0.345981  1.244203 )  


     PseudoPot. # 1 for H  read from file:
     ./H.pbe-van_ak.UPF
     MD5 check sum: 077eb6d537518a38cb46c6de387227b7
     Pseudo is Ultrasoft, Zval =  1.0
     Generated by new atomic code, or converted to UPF format
     Using radial grid of  615 points,  1 beta functions with: 
                l(1) =   0
     Q(r) pseudized with  8 coefficients,  rinner =    0.800

     PseudoPot. # 2 for O  read from file:
     ./O.pbe-van_ak.UPF
     MD5 check sum: 78c19812648e8988a0fe644b0f25305e
     Pseudo is Ultrasoft, Zval =  6.0
     Generated by new atomic code, or converted to UPF format
     Using radial grid of  737 points,  4 beta functions with: 
                l(1) =   0
                l(2) =   0
                l(3) =   1
                l(4) =   1
     Q(r) pseudized with  8 coefficients,  rinner =    0.800   0.800   0.800


     atomic species   valence    mass     pseudopotential
     H                 1.00     1.00800     H ( 1.00)
     O                 6.00    16.00000     O ( 1.00)

      6 Sym. Ops., with inversion, found



   Cartesian axes

     site n.     atom                  positions (alat units)
         1        O      tau(   1) = (  -0.4910119  -0.5205722   0.3052394  )
         2        O      tau(   2) = (   0.4910119   0.5205722   0.4984877  )
         3        O      tau(   3) = (   0.6963347  -0.1649427   0.3052394  )
         4        O      tau(   4) = (  -0.6963347   0.1649427   0.4984877  )
         5        O      tau(   5) = (  -0.2053228   0.6855149   0.3052394  )
         6        O      tau(   6) = (   0.2053228  -0.6855149   0.4984877  )
         7        O      tau(   7) = (   0.1229870   0.3303028   0.4196306  )
         8        O      tau(   8) = (  -0.1229870  -0.3303028   0.3840965  )
         9        O      tau(   9) = (  -0.3475441  -0.0586415   0.4196306  )
        10        O      tau(  10) = (   0.3475441   0.0586415   0.3840965  )
        11        O      tau(  11) = (   0.2245571  -0.2716613   0.4196306  )
        12        O      tau(  12) = (  -0.2245571   0.2716612   0.3840965  )
        13        H      tau(  13) = (  -0.5446961  -0.4126715   0.2597134  )
        14        H      tau(  14) = (   0.5446961   0.4126715   0.5440137  )
        15        H      tau(  15) = (   0.6297321  -0.2653849   0.2597134  )
        16        H      tau(  16) = (  -0.6297321   0.2653849   0.5440137  )
        17        H      tau(  17) = (  -0.0850360   0.6780564   0.2597134  )
        18        H      tau(  18) = (   0.0850360  -0.6780564   0.5440137  )
        19        H      tau(  19) = (  -0.4726389  -0.4926041   0.4288765  )
        20        H      tau(  20) = (   0.4726389   0.4926042   0.3748506  )
        21        H      tau(  21) = (   0.6629272  -0.1630152   0.4288765  )
        22        H      tau(  22) = (  -0.6629272   0.1630152   0.3748506  )
        23        H      tau(  23) = (  -0.1902883   0.6556194   0.4288765  )
        24        H      tau(  24) = (   0.1902883  -0.6556194   0.3748506  )
        25        H      tau(  25) = (   0.2676988  -0.1507235   0.4151121  )
        26        H      tau(  26) = (  -0.2676988   0.1507234   0.3886151  )
        27        H      tau(  27) = (  -0.0033191   0.3071957   0.4151121  )
        28        H      tau(  28) = (   0.0033191  -0.3071957   0.3886151  )
        29        H      tau(  29) = (  -0.2643797  -0.1564722   0.4151121  )
        30        H      tau(  30) = (   0.2643797   0.1564723   0.3886151  )
        31        H      tau(  31) = (   0.3102941  -0.3416444   0.3555952  )
        32        H      tau(  32) = (  -0.3102941   0.3416444   0.4481319  )
        33        H      tau(  33) = (   0.1407257   0.4395448   0.3555952  )
        34        H      tau(  34) = (  -0.1407257  -0.4395448   0.4481319  )
        35        H      tau(  35) = (  -0.4510198  -0.0979003   0.3555952  )
        36        H      tau(  36) = (   0.4510198   0.0979003   0.4481319  )

     number of k points=    14
                       cart. coord. in units 2pi/alat
        k(    1) = (   0.0000000   0.0000000   0.0000000), wk =   0.0312500
        k(    2) = (  -0.1498141  -0.0864952   0.3110508), wk =   0.1875000
        k(    3) = (   0.2996283   0.1729905  -0.6221017), wk =   0.0937500
        k(    4) = (  -0.1498141   0.0864952   0.6221017), wk =   0.1875000
        k(    5) = (   0.2996283   0.3459809  -0.3110508), wk =   0.1875000
        k(    6) = (   0.1498141   0.2594857   0.0000000), wk =   0.1875000
        k(    7) = (   0.2996283  -0.1729905  -1.2442034), wk =   0.0937500
        k(    8) = (   0.0000000   0.0000000   0.9331525), wk =   0.0625000
        k(    9) = (   0.4494424   0.2594857   0.0000000), wk =   0.1875000
        k(   10) = (   0.2996283   0.1729905   0.3110508), wk =   0.1875000
        k(   11) = (   0.4494424  -0.2594857  -0.9331525), wk =   0.1875000
        k(   12) = (   0.2996283  -0.3459809  -0.6221017), wk =   0.1875000
        k(   13) = (   0.0000000   0.0000000  -1.8663050), wk =   0.0312500
        k(   14) = (   0.2996283  -0.3459809   0.3110508), wk =   0.1875000

     Dense  grid:   236891 G-vectors     FFT dimensions: (  90,  90,  90)

     Estimated max dynamical RAM per process >      15.50 MB

     Estimated total dynamical RAM >       1.77 GB

     Initial potential from superposition of free atoms

     starting charge      95.9998, renormalised to      96.0000
     Starting wfcs are   72 randomized atomic wfcs

     total cpu time spent up to now is        1.2 secs

     per-process dynamical memory:    19.5 Mb

     Self-consistent Calculation

     iteration #  1     ecut=    90.00 Ry     beta= 0.70
     Davidson diagonalization with overlap
     ethr =  1.00E-02,  avg # of iterations =  2.0

     total cpu time spent up to now is        2.0 secs

     total energy              =    -412.33963929 Ry
     estimated scf accuracy    <       3.92295493 Ry

     iteration #  2     ecut=    90.00 Ry     beta= 0.70
     Davidson diagonalization with overlap
     ethr =  4.09E-03,  avg # of iterations =  3.0

     total cpu time spent up to now is        3.1 secs

     total energy              =    -413.58408702 Ry
     estimated scf accuracy    <       2.35798260 Ry

     iteration #  3     ecut=    90.00 Ry     beta= 0.70
     Davidson diagonalization with overlap
     ethr =  2.46E-03,  avg # of iterations =  2.0

     total cpu time spent up to now is        3.9 secs

     total energy              =    -413.88521749 Ry
     estimated scf accuracy    <       0.09665142 Ry

     iteration #  4     ecut=    90.00 Ry     beta= 0.70
     Davidson diagonalization with overlap
     ethr =  1.01E-04,  avg # of iterations =  4.0

     negative rho (up, down):  4.007E-08 0.000E+00

     total cpu time spent up to now is        5.0 secs

     total energy              =    -413.96003076 Ry
     estimated scf accuracy    <       0.11871401 Ry

     iteration #  5     ecut=    90.00 Ry     beta= 0.70
     Davidson diagonalization with overlap
     ethr =  1.01E-04,  avg # of iterations =  2.0

     negative rho (up, down):  6.612E-08 0.000E+00

     total cpu time spent up to now is        5.8 secs

     total energy              =    -413.96444029 Ry
     estimated scf accuracy    <       0.01722778 Ry

     iteration #  6     ecut=    90.00 Ry     beta= 0.70
     Davidson diagonalization with overlap
     ethr =  1.79E-05,  avg # of iterations =  2.0

     negative rho (up, down):  1.073E-07 0.000E+00

     total cpu time spent up to now is        6.6 secs

     total energy              =    -413.96406319 Ry
     estimated scf accuracy    <       0.00440257 Ry

     iteration #  7     ecut=    90.00 Ry     beta= 0.70
     Davidson diagonalization with overlap
     ethr =  4.59E-06,  avg # of iterations =  3.0

     negative rho (up, down):  9.210E-08 0.000E+00

     total cpu time spent up to now is        7.5 secs

     total energy              =    -413.96652813 Ry
     estimated scf accuracy    <       0.00083179 Ry

     iteration #  8     ecut=    90.00 Ry     beta= 0.70
     Davidson diagonalization with overlap
     ethr =  8.66E-07,  avg # of iterations =  2.0

     negative rho (up, down):  8.266E-08 0.000E+00

     total cpu time spent up to now is        8.2 secs

     total energy              =    -413.96613024 Ry
     estimated scf accuracy    <       0.00129334 Ry

     iteration #  9     ecut=    90.00 Ry     beta= 0.70
     Davidson diagonalization with overlap
     ethr =  8.66E-07,  avg # of iterations =  2.0

     negative rho (up, down):  7.508E-08 0.000E+00

     total cpu time spent up to now is        8.9 secs

     total energy              =    -413.96607508 Ry
     estimated scf accuracy    <       0.00031783 Ry

     iteration # 10     ecut=    90.00 Ry     beta= 0.70
     Davidson diagonalization with overlap
     ethr =  3.31E-07,  avg # of iterations =  2.0

     negative rho (up, down):  7.478E-08 0.000E+00

     total cpu time spent up to now is        9.7 secs

     total energy              =    -413.96613747 Ry
     estimated scf accuracy    <       0.00000806 Ry

     iteration # 11     ecut=    90.00 Ry     beta= 0.70
     Davidson diagonalization with overlap
     ethr =  8.40E-09,  avg # of iterations =  4.2

     negative rho (up, down):  7.611E-08 0.000E+00

     total cpu time spent up to now is       10.7 secs

     total energy              =    -413.96614230 Ry
     estimated scf accuracy    <       0.00000036 Ry

     iteration # 12     ecut=    90.00 Ry     beta= 0.70
     Davidson diagonalization with overlap
     ethr =  3.77E-10,  avg # of iterations =  4.1

     negative rho (up, down):  7.541E-08 0.000E+00

     total cpu time spent up to now is       11.9 secs

     total energy              =    -413.96614237 Ry
     estimated scf accuracy    <       0.00000145 Ry

     iteration # 13     ecut=    90.00 Ry     beta= 0.70
     Davidson diagonalization with overlap
     ethr =  3.77E-10,  avg # of iterations =  2.0

     negative rho (up, down):  7.509E-08 0.000E+00

     total cpu time spent up to now is       12.8 secs

     total energy              =    -413.96614231 Ry
     estimated scf accuracy    <       0.00000029 Ry

     iteration # 14     ecut=    90.00 Ry     beta= 0.70
     Davidson diagonalization with overlap
     ethr =  3.02E-10,  avg # of iterations =  2.9

     negative rho (up, down):  7.517E-08 0.000E+00

     total cpu time spent up to now is       13.7 secs

     End of self-consistent calculation

          k = 0.0000 0.0000 0.0000 ( 29609 PWs)   bands (ev):

   -20.8465 -20.3952 -20.3952 -20.1773 -20.1773 -20.1667 -20.1244 -20.1244
   -20.0965 -19.8148 -19.8148 -19.4992  -8.4083  -8.2879  -8.2676  -8.2676
    -8.1911  -8.1911  -7.8804  -7.8804  -7.8661  -7.8661  -7.8609  -7.8100
    -6.7374  -5.6264  -5.6264  -5.0929  -5.0929  -4.8326  -4.8326  -4.7798
    -4.5453  -3.9073  -3.9073  -3.1728  -2.8078  -2.8078  -2.7192  -2.6167
    -2.6167  -2.5568  -2.4869  -2.4760  -2.4760  -2.3945  -2.3559  -2.3559

          k =-0.1498-0.0865 0.3111 ( 29611 PWs)   bands (ev):

   -20.7751 -20.4289 -20.3861 -20.3166 -20.2817 -20.2144 -20.0825 -20.0255
   -19.9674 -19.8233 -19.7824 -19.5559  -8.3738  -8.3118  -8.2798  -8.2584
    -8.1881  -8.1459  -7.9478  -7.9099  -7.8792  -7.8228  -7.7841  -7.7630
    -6.5512  -5.7963  -5.6534  -5.3685  -5.1915  -4.9366  -4.6577  -4.5829
    -4.3815  -3.9114  -3.8405  -3.3197  -2.8878  -2.8306  -2.7400  -2.6843
    -2.6643  -2.6018  -2.5364  -2.4704  -2.4391  -2.4066  -2.3562  -2.3435

          k = 0.2996 0.1730-0.6221 ( 29598 PWs)   bands (ev):

   -20.6053 -20.5717 -20.4114 -20.3769 -20.3033 -20.2716 -20.0361 -19.9923
   -19.8749 -19.8070 -19.7262 -19.6706  -8.3298  -8.3226  -8.2789  -8.2656
    -8.1964  -8.1241  -7.9489  -7.9258  -7.8868  -7.8343  -7.7226  -7.7074
    -6.1828  -6.0746  -5.6846  -5.6448  -5.1642  -5.1240  -4.5182  -4.4711
    -4.0278  -3.9939  -3.8097  -3.5661  -2.9579  -2.8501  -2.7551  -2.7521
    -2.6897  -2.6063  -2.5822  -2.5052  -2.4758  -2.3940  -2.3259  -2.3223

          k =-0.1498 0.0865 0.6221 ( 29624 PWs)   bands (ev):

   -20.6350 -20.4852 -20.4755 -20.3598 -20.3324 -20.2653 -20.0317 -19.9503
   -19.9055 -19.7891 -19.7658 -19.6519  -8.3314  -8.3072  -8.2969  -8.2720
    -8.1841  -8.1180  -7.9462  -7.9305  -7.9224  -7.7771  -7.7436  -7.7143
    -6.2235  -5.9348  -5.8901  -5.4490  -5.3026  -5.1041  -4.5477  -4.3007
    -4.2192  -3.8976  -3.8126  -3.5870  -2.9467  -2.8720  -2.7584  -2.7188
    -2.6617  -2.6447  -2.5931  -2.4863  -2.4769  -2.4025  -2.3449  -2.3026

          k = 0.2996 0.3460-0.3111 ( 29596 PWs)   bands (ev):

   -20.6770 -20.5156 -20.4483 -20.3761 -20.2967 -20.2267 -20.0508 -19.9537
   -19.8627 -19.8485 -19.7433 -19.6397  -8.3431  -8.3335  -8.2588  -8.2495
    -8.1918  -8.1333  -8.0169  -7.9898  -7.9265  -7.7770  -7.7642  -7.7151
    -6.2683  -5.9237  -5.7311  -5.4874  -5.4540  -4.9107  -4.5000  -4.3531
    -4.2374  -3.9394  -3.8142  -3.5209  -2.8825  -2.8274  -2.7686  -2.7017
    -2.6580  -2.5877  -2.5562  -2.5333  -2.4554  -2.4435  -2.3245  -2.2739

          k = 0.1498 0.2595 0.0000 ( 29619 PWs)   bands (ev):

   -20.7927 -20.4670 -20.4125 -20.2951 -20.2404 -20.1691 -20.1003 -20.0333
   -19.9636 -19.8237 -19.7865 -19.5474  -8.3861  -8.3102  -8.2729  -8.2473
    -8.1792  -8.1699  -8.0116  -7.9610  -7.8897  -7.8253  -7.7995  -7.7686
    -6.5573  -5.6887  -5.6302  -5.3931  -5.3515  -4.7721  -4.6429  -4.5033
    -4.4223  -3.9367  -3.8983  -3.2695  -2.8080  -2.7877  -2.7564  -2.6664
    -2.6230  -2.5867  -2.5219  -2.5037  -2.4616  -2.4176  -2.3191  -2.3047

          k = 0.2996-0.1730-1.2442 ( 29608 PWs)   bands (ev):

   -20.6587 -20.6332 -20.4251 -20.3480 -20.2354 -20.2013 -20.0315 -20.0300
   -19.8709 -19.8538 -19.6910 -19.6523  -8.3537  -8.3268  -8.2639  -8.2455
    -8.1556  -8.1541  -8.0924  -8.0193  -7.9115  -7.8175  -7.7842  -7.7376
    -6.1236  -6.1046  -5.6700  -5.5976  -5.2599  -4.8997  -4.4654  -4.3982
    -4.2018  -4.0522  -3.7119  -3.5226  -2.8119  -2.7787  -2.7581  -2.7003
    -2.6310  -2.5834  -2.5711  -2.5019  -2.4951  -2.4238  -2.2852  -2.2720

          k = 0.0000 0.0000 0.9332 ( 29544 PWs)   bands (ev):

   -20.5620 -20.5620 -20.5229 -20.4432 -20.2570 -20.2570 -19.9706 -19.9706
   -19.8436 -19.7583 -19.7583 -19.7337  -8.3310  -8.3310  -8.2778  -8.2278
    -8.1801  -8.1801  -8.0503  -7.9719  -7.9719  -7.7320  -7.7320  -7.6994
    -6.0087  -6.0087  -5.9332  -5.6546  -5.2049  -5.2049  -4.2609  -4.2609
    -4.1217  -3.8835  -3.8835  -3.7595  -2.8354  -2.8354  -2.7387  -2.7068
    -2.6312  -2.6312  -2.5671  -2.5125  -2.5125  -2.3878  -2.3878  -2.2480

          k = 0.4494 0.2595 0.0000 ( 29598 PWs)   bands (ev):

   -20.6928 -20.5285 -20.5236 -20.3480 -20.2024 -20.1721 -20.0743 -20.0380
   -19.8778 -19.7934 -19.7491 -19.6311  -8.3522  -8.3170  -8.2904  -8.2146
    -8.1897  -8.1266  -8.1093  -7.9928  -7.9468  -7.7979  -7.7672  -7.7565
    -6.2520  -5.8277  -5.7891  -5.6583  -5.2202  -4.8932  -4.5345  -4.4251
    -4.1143  -3.9554  -3.8536  -3.4838  -2.7975  -2.7809  -2.7676  -2.6951
    -2.6546  -2.5965  -2.5536  -2.5278  -2.4546  -2.4000  -2.3335  -2.2518

          k = 0.2996 0.1730 0.3111 ( 29593 PWs)   bands (ev):

   -20.7249 -20.4740 -20.3983 -20.3761 -20.2838 -20.2261 -20.0511 -20.0135
   -19.9234 -19.8219 -19.7535 -19.5924  -8.3567  -8.3175  -8.2843  -8.2243
    -8.1997  -8.1125  -8.0187  -7.9099  -7.8819  -7.8626  -7.8030  -7.7428
    -6.3914  -5.7916  -5.7294  -5.4136  -5.3666  -4.9190  -4.5766  -4.4271
    -4.3811  -3.8890  -3.8283  -3.3845  -2.9087  -2.8167  -2.7735  -2.7378
    -2.6749  -2.5969  -2.5340  -2.5124  -2.4403  -2.4100  -2.3345  -2.2874

          k = 0.4494-0.2595-0.9332 ( 29637 PWs)   bands (ev):

   -20.5967 -20.5902 -20.4548 -20.4077 -20.2781 -20.1966 -20.0852 -19.9879
   -19.8491 -19.8036 -19.7481 -19.6405  -8.3361  -8.3136  -8.2879  -8.2142
    -8.1836  -8.0848  -8.0663  -7.9684  -7.9002  -7.8621  -7.7906  -7.7518
    -6.1035  -5.9465  -5.7770  -5.5969  -5.3189  -4.9040  -4.6663  -4.3754
    -4.1134  -3.8759  -3.8496  -3.4931  -2.9105  -2.8329  -2.7984  -2.7439
    -2.7121  -2.6225  -2.5281  -2.4934  -2.4444  -2.4164  -2.3329  -2.2444

          k = 0.2996-0.3460-0.6221 ( 29592 PWs)   bands (ev):

   -20.5715 -20.5341 -20.4426 -20.4322 -20.3038 -20.2921 -20.0146 -19.9936
   -19.8427 -19.8210 -19.7451 -19.6532  -8.3403  -8.2866  -8.2640  -8.2509
    -8.2221  -8.0772  -7.9757  -7.9543  -7.8801  -7.8435  -7.7581  -7.7475
    -6.0528  -6.0209  -5.7261  -5.6696  -5.2206  -5.1809  -4.4747  -4.4053
    -4.0706  -4.0409  -3.7423  -3.5519  -2.9778  -2.8495  -2.8042  -2.7882
    -2.7120  -2.6360  -2.5194  -2.4970  -2.4828  -2.3892  -2.3689  -2.2456

          k = 0.0000 0.0000-1.8663 ( 29664 PWs)   bands (ev):

   -20.5319 -20.4876 -20.4395 -20.4395 -20.3714 -20.3714 -19.9392 -19.9392
   -19.8731 -19.8731 -19.7455 -19.6345  -8.3423  -8.2444  -8.2444  -8.2419
    -8.2419  -8.0478  -8.0023  -7.9759  -7.8556  -7.8556  -7.8010  -7.8010
    -6.0551  -5.8973  -5.5497  -5.5497  -5.4423  -5.4423  -4.2471  -4.2471
    -4.2030  -4.2030  -3.6852  -3.5306  -2.9667  -2.8414  -2.8414  -2.8282
    -2.8282  -2.5969  -2.4939  -2.4365  -2.4365  -2.4277  -2.4277  -2.2023

          k = 0.2996-0.3460 0.3111 ( 29596 PWs)   bands (ev):

   -20.6764 -20.5236 -20.4249 -20.3948 -20.2945 -20.2274 -20.0459 -19.9473
   -19.9056 -19.7986 -19.7616 -19.6385  -8.3522  -8.3157  -8.2733  -8.2326
    -8.2026  -8.1354  -8.0309  -7.9766  -7.9231  -7.7791  -7.7560  -7.7220
    -6.2720  -5.9065  -5.7737  -5.4571  -5.4157  -4.9695  -4.5744  -4.2546
    -4.1500  -3.9994  -3.8728  -3.4941  -2.8922  -2.7992  -2.7764  -2.7026
    -2.6608  -2.5934  -2.5564  -2.5386  -2.4837  -2.4044  -2.3291  -2.2760

     highest occupied level (ev):    -2.2023

!    total energy              =    -413.96614240 Ry
     estimated scf accuracy    <          8.6E-10 Ry

     The total energy is the sum of the following terms:
     one-electron contribution =    -290.49214094 Ry
     hartree contribution      =     179.72595736 Ry
     xc contribution           =    -101.51865408 Ry
     ewald contribution        =    -201.68130474 Ry

     convergence has been achieved in  14 iterations

     Forces acting on atoms (cartesian axes, Ry/au):

     atom    1 type  2   force =    -0.00061467    0.00013008    0.00062111
     atom    2 type  2   force =     0.00061467   -0.00013008   -0.00062111
     atom    3 type  2   force =     0.00019468   -0.00059736    0.00062111
     atom    4 type  2   force =    -0.00019468    0.00059736   -0.00062111
     atom    5 type  2   force =     0.00041999    0.00046728    0.00062111
     atom    6 type  2   force =    -0.00041999   -0.00046728   -0.00062111
     atom    7 type  2   force =     0.00019334    0.00025842    0.00052337
     atom    8 type  2   force =    -0.00019334   -0.00025842   -0.00052337
     atom    9 type  2   force =    -0.00032047    0.00003822    0.00052337
     atom   10 type  2   force =     0.00032047   -0.00003822   -0.00052337
     atom   11 type  2   force =     0.00012713   -0.00029665    0.00052337
     atom   12 type  2   force =    -0.00012713    0.00029665   -0.00052337
     atom   13 type  1   force =     0.00028553   -0.00035450    0.00088808
     atom   14 type  1   force =    -0.00028553    0.00035450   -0.00088808
     atom   15 type  1   force =     0.00016424    0.00042453    0.00088808
     atom   16 type  1   force =    -0.00016424   -0.00042453   -0.00088808
     atom   17 type  1   force =    -0.00044978   -0.00007003    0.00088808
     atom   18 type  1   force =     0.00044978    0.00007003   -0.00088808
     atom   19 type  1   force =     0.00056561   -0.00025973   -0.00021960
     atom   20 type  1   force =    -0.00056561    0.00025973    0.00021960
     atom   21 type  1   force =    -0.00005788    0.00061970   -0.00021960
     atom   22 type  1   force =     0.00005788   -0.00061970    0.00021960
     atom   23 type  1   force =    -0.00050774   -0.00035997   -0.00021960
     atom   24 type  1   force =     0.00050774    0.00035997    0.00021960
     atom   25 type  1   force =     0.00014666    0.00013843   -0.00009875
     atom   26 type  1   force =    -0.00014666   -0.00013843    0.00009875
     atom   27 type  1   force =    -0.00019322    0.00005779   -0.00009875
     atom   28 type  1   force =     0.00019322   -0.00005779    0.00009875
     atom   29 type  1   force =     0.00004656   -0.00019623   -0.00009875
     atom   30 type  1   force =    -0.00004656    0.00019623    0.00009875
     atom   31 type  1   force =    -0.00084088    0.00049497    0.00033597
     atom   32 type  1   force =     0.00084088   -0.00049497   -0.00033597
     atom   33 type  1   force =    -0.00000822   -0.00097571    0.00033597
     atom   34 type  1   force =     0.00000822    0.00097571   -0.00033597
     atom   35 type  1   force =     0.00084910    0.00048074    0.00033597
     atom   36 type  1   force =    -0.00084910   -0.00048074   -0.00033597

     Total force =     0.004715     Total SCF correction =     0.000027


     Computing stress (Cartesian axis) and pressure

          total   stress  (Ry/bohr**3)                   (kbar)     P=       -8.27
  -0.00006639  -0.00000000   0.00000000           -9.77       -0.00        0.00
   0.00000000  -0.00006639  -0.00000000            0.00       -9.77       -0.00
  -0.00000000  -0.00000000  -0.00003592           -0.00       -0.00       -5.28


     Writing all to output data dir ./iceII/iceII.save/ :
     XML data file, charge density, pseudopotentials, collected wavefunctions

     init_run     :      0.94s CPU      0.98s WALL (       1 calls)
     electrons    :     12.34s CPU     12.58s WALL (       1 calls)
     forces       :      0.13s CPU      0.14s WALL (       1 calls)
     stress       :      0.87s CPU      0.88s WALL (       1 calls)

     Called by init_run:
     wfcinit      :      0.35s CPU      0.36s WALL (       1 calls)
     potinit      :      0.04s CPU      0.05s WALL (       1 calls)
     hinit0       :      0.39s CPU      0.39s WALL (       1 calls)

     Called by electrons:
     c_bands      :     10.27s CPU     10.37s WALL (      14 calls)
     sum_band     :      1.49s CPU      1.52s WALL (      14 calls)
     v_of_rho     :      0.33s CPU      0.38s WALL (      15 calls)
     newd         :      0.13s CPU      0.13s WALL (      15 calls)
     mix_rho      :      0.06s CPU      0.06s WALL (      14 calls)

     Called by c_bands:
     init_us_2    :      0.18s CPU      0.18s WALL (     124 calls)
     cegterg      :      9.88s CPU      9.96s WALL (      56 calls)

     Called by *egterg:
     cdiaghg      :      0.76s CPU      0.76s WALL (     206 calls)
     h_psi        :      7.74s CPU      7.80s WALL (     210 calls)
     s_psi        :      0.31s CPU      0.32s WALL (     210 calls)
     g_psi        :      0.02s CPU      0.02s WALL (     150 calls)

     Called by h_psi:
     h_psi:calbec :      0.55s CPU      0.56s WALL (     210 calls)
     vloc_psi     :      6.80s CPU      6.85s WALL (     210 calls)
     add_vuspsi   :      0.33s CPU      0.34s WALL (     210 calls)

     General routines
     calbec       :      0.75s CPU      0.76s WALL (     286 calls)
     fft          :      0.59s CPU      0.63s WALL (     173 calls)
     ffts         :      0.02s CPU      0.03s WALL (      14 calls)
     fftw         :      7.12s CPU      7.17s WALL (   19294 calls)

     Parallel routines

     PWSCF        :     14.58s CPU     15.16s WALL


   This run was terminated on:  17:57:53  23Mar2026            

=------------------------------------------------------------------------------=
   JOB DONE.
=------------------------------------------------------------------------------=
