
     Program PWSCF v.7.3.1 starts on 31Mar2026 at 18:49:50 

     This program is part of the open-source Quantum ESPRESSO suite
     for quantum simulation of materials; please cite
         "P. Giannozzi et al., J. Phys.:Condens. Matter 21 395502 (2009);
         "P. Giannozzi et al., J. Phys.:Condens. Matter 29 465901 (2017);
         "P. Giannozzi et al., J. Chem. Phys. 152 154105 (2020);
          URL http://www.quantum-espresso.org", 
     in publications or presentations arising from this work. More details at
     http://www.quantum-espresso.org/quote

     Parallel version (MPI), running on   128 processors

     MPI processes distributed on     1 nodes
     499137 MiB available memory on the printing compute node when the environment starts

     Waiting for input...
     Reading input from standard input

     Current dimensions of program PWSCF are:
     Max number of different atomic species (ntypx) = 10
     Max number of k-points (npk) =  40000
     Max angular momentum in pseudopotentials (lmaxx) =  4

     File ./iceII/iceII.update deleted, as requested

     File ./iceII/iceII.bfgs deleted, as requested

     K-points division:     npool     =       4
     R & G space division:  proc/nbgrp/npool/nimage =      32
     Subspace diagonalization in iterative solution of the eigenvalue problem:
     a serial algorithm will be used


     Parallelization info
     --------------------
     sticks:   dense  smooth     PW     G-vecs:    dense   smooth      PW
     Min         179     179     52                 7466     7466    1187
     Max         180     180     53                 7468     7468    1189
     Sum        5739    5739   1683               238955   238955   38017

     Using Slab Decomposition



     bravais-lattice index     =            5
     lattice parameter (alat)  =      14.7462  a.u.
     unit-cell volume          =    2071.7173 (a.u.)^3
     number of atoms/cell      =           36
     number of atomic types    =            2
     number of electrons       =        96.00
     number of Kohn-Sham states=           48
     kinetic-energy cutoff     =      90.0000  Ry
     charge density cutoff     =     360.0000  Ry
     scf convergence threshold =      1.0E-07
     mixing beta               =       0.7000
     number of iterations used =            8  plain     mixing
     energy convergence thresh.=      1.0E-04
     force convergence thresh. =      1.0E-04
     Exchange-correlation=  SLA  PW   PBE  PBE
                           (   1   4   3   4   0   0   0)
     nstep                     =           50


     celldm(1)=  14.746174  celldm(2)=   0.000000  celldm(3)=   0.000000
     celldm(4)=  -0.392337  celldm(5)=   0.000000  celldm(6)=   0.000000

     crystal axes: (cart. coord. in units of alat)
               a(1) = (   0.834367  -0.481722   0.267909 )  
               a(2) = (   0.000000   0.963444   0.267909 )  
               a(3) = (  -0.834367  -0.481722   0.267909 )  

     reciprocal axes: (cart. coord. in units 2 pi/alat)
               b(1) = (  0.599257 -0.345981  1.244203 )  
               b(2) = (  0.000000  0.691962  1.244203 )  
               b(3) = ( -0.599257 -0.345981  1.244203 )  


     PseudoPot. # 1 for H  read from file:
     ./H.pbe-van_ak.UPF
     MD5 check sum: 077eb6d537518a38cb46c6de387227b7
     Pseudo is Ultrasoft, Zval =  1.0
     Generated by new atomic code, or converted to UPF format
     Using radial grid of  615 points,  1 beta functions with: 
                l(1) =   0
     Q(r) pseudized with  8 coefficients,  rinner =    0.800

     PseudoPot. # 2 for O  read from file:
     ./O.pbe-van_ak.UPF
     MD5 check sum: 78c19812648e8988a0fe644b0f25305e
     Pseudo is Ultrasoft, Zval =  6.0
     Generated by new atomic code, or converted to UPF format
     Using radial grid of  737 points,  4 beta functions with: 
                l(1) =   0
                l(2) =   0
                l(3) =   1
                l(4) =   1
     Q(r) pseudized with  8 coefficients,  rinner =    0.800   0.800   0.800


     atomic species   valence    mass     pseudopotential
     H                 1.00     1.00800     H ( 1.00)
     O                 6.00    16.00000     O ( 1.00)

      6 Sym. Ops., with inversion, found



   Cartesian axes

     site n.     atom                  positions (alat units)
         1        O      tau(   1) = (  -0.4847673  -0.5197781   0.3083633  )
         2        O      tau(   2) = (   0.4847673   0.5197782   0.4953638  )
         3        O      tau(   3) = (   0.6925247  -0.1599317   0.3083633  )
         4        O      tau(   4) = (  -0.6925248   0.1599317   0.4953638  )
         5        O      tau(   5) = (  -0.2077574   0.6797099   0.3083633  )
         6        O      tau(   6) = (   0.2077574  -0.6797099   0.4953638  )
         7        O      tau(   7) = (   0.1218176   0.3323883   0.4179381  )
         8        O      tau(   8) = (  -0.1218176  -0.3323883   0.3857890  )
         9        O      tau(   9) = (  -0.3487655  -0.0606970   0.4179381  )
        10        O      tau(  10) = (   0.3487655   0.0606970   0.3857890  )
        11        O      tau(  11) = (   0.2269479  -0.2716913   0.4179381  )
        12        O      tau(  12) = (  -0.2269479   0.2716912   0.3857890  )
        13        H      tau(  13) = (  -0.5381668  -0.4032014   0.2796970  )
        14        H      tau(  14) = (   0.5381668   0.4032014   0.5240301  )
        15        H      tau(  15) = (   0.6182661  -0.2644654   0.2796970  )
        16        H      tau(  16) = (  -0.6182661   0.2644654   0.5240301  )
        17        H      tau(  17) = (  -0.0800993   0.6676668   0.2796970  )
        18        H      tau(  18) = (   0.0800993  -0.6676668   0.5240301  )
        19        H      tau(  19) = (  -0.4872704  -0.4817221   0.4326731  )
        20        H      tau(  20) = (   0.4872704   0.4817221   0.3710540  )
        21        H      tau(  21) = (   0.6608188  -0.1811275   0.4326731  )
        22        H      tau(  22) = (  -0.6608188   0.1811275   0.3710540  )
        23        H      tau(  23) = (  -0.1735484   0.6628496   0.4326731  )
        24        H      tau(  24) = (   0.1735484  -0.6628496   0.3710540  )
        25        H      tau(  25) = (   0.2703349  -0.1502973   0.4058822  )
        26        H      tau(  26) = (  -0.2703350   0.1502973   0.3978449  )
        27        H      tau(  27) = (  -0.0050062   0.3092656   0.4058822  )
        28        H      tau(  28) = (   0.0050062  -0.3092656   0.3978449  )
        29        H      tau(  29) = (  -0.2653287  -0.1589683   0.4058822  )
        30        H      tau(  30) = (   0.2653287   0.1589683   0.3978449  )
        31        H      tau(  31) = (   0.3178939  -0.3347969   0.3493534  )
        32        H      tau(  32) = (  -0.3178939   0.3347969   0.4543737  )
        33        H      tau(  33) = (   0.1309957   0.4427026   0.3493534  )
        34        H      tau(  34) = (  -0.1309956  -0.4427026   0.4543737  )
        35        H      tau(  35) = (  -0.4488895  -0.1079057   0.3493534  )
        36        H      tau(  36) = (   0.4488895   0.1079057   0.4543737  )

     number of k points=    14
                       cart. coord. in units 2pi/alat
        k(    1) = (   0.0000000   0.0000000   0.0000000), wk =   0.0312500
        k(    2) = (  -0.1498141  -0.0864952   0.3110508), wk =   0.1875000
        k(    3) = (   0.2996283   0.1729905  -0.6221017), wk =   0.0937500
        k(    4) = (  -0.1498141   0.0864952   0.6221017), wk =   0.1875000
        k(    5) = (   0.2996283   0.3459809  -0.3110508), wk =   0.1875000
        k(    6) = (   0.1498141   0.2594857   0.0000000), wk =   0.1875000
        k(    7) = (   0.2996283  -0.1729905  -1.2442034), wk =   0.0937500
        k(    8) = (   0.0000000   0.0000000   0.9331525), wk =   0.0625000
        k(    9) = (   0.4494424   0.2594857   0.0000000), wk =   0.1875000
        k(   10) = (   0.2996283   0.1729905   0.3110508), wk =   0.1875000
        k(   11) = (   0.4494424  -0.2594857  -0.9331525), wk =   0.1875000
        k(   12) = (   0.2996283  -0.3459809  -0.6221017), wk =   0.1875000
        k(   13) = (   0.0000000   0.0000000  -1.8663050), wk =   0.0312500
        k(   14) = (   0.2996283  -0.3459809   0.3110508), wk =   0.1875000

     Dense  grid:   238955 G-vectors     FFT dimensions: (  90,  90,  90)

     Estimated max dynamical RAM per process >      15.61 MB

     Estimated total dynamical RAM >       1.78 GB

     Initial potential from superposition of free atoms

     starting charge      95.9998, renormalised to      96.0000
     Starting wfcs are   72 randomized atomic wfcs

     total cpu time spent up to now is        1.2 secs

     per-process dynamical memory:    19.9 Mb

     Self-consistent Calculation

     iteration #  1     ecut=    90.00 Ry     beta= 0.70
     Davidson diagonalization with overlap
     ethr =  1.00E-02,  avg # of iterations =  2.0

     total cpu time spent up to now is        2.0 secs

     total energy              =    -412.28326179 Ry
     estimated scf accuracy    <       3.72999168 Ry

     iteration #  2     ecut=    90.00 Ry     beta= 0.70
     Davidson diagonalization with overlap
     ethr =  3.89E-03,  avg # of iterations =  3.0

     total cpu time spent up to now is        3.1 secs

     total energy              =    -413.46150169 Ry
     estimated scf accuracy    <       2.38141750 Ry

     iteration #  3     ecut=    90.00 Ry     beta= 0.70
     Davidson diagonalization with overlap
     ethr =  2.48E-03,  avg # of iterations =  2.0

     total cpu time spent up to now is        3.9 secs

     total energy              =    -413.76413783 Ry
     estimated scf accuracy    <       0.10248178 Ry

     iteration #  4     ecut=    90.00 Ry     beta= 0.70
     Davidson diagonalization with overlap
     ethr =  1.07E-04,  avg # of iterations =  4.0

     total cpu time spent up to now is        5.1 secs

     total energy              =    -413.84425171 Ry
     estimated scf accuracy    <       0.12071154 Ry

     iteration #  5     ecut=    90.00 Ry     beta= 0.70
     Davidson diagonalization with overlap
     ethr =  1.07E-04,  avg # of iterations =  2.0

     total cpu time spent up to now is        5.7 secs

     total energy              =    -413.84781918 Ry
     estimated scf accuracy    <       0.02056792 Ry

     iteration #  6     ecut=    90.00 Ry     beta= 0.70
     Davidson diagonalization with overlap
     ethr =  2.14E-05,  avg # of iterations =  2.0

     total cpu time spent up to now is        6.5 secs

     total energy              =    -413.84715117 Ry
     estimated scf accuracy    <       0.00701638 Ry

     iteration #  7     ecut=    90.00 Ry     beta= 0.70
     Davidson diagonalization with overlap
     ethr =  7.31E-06,  avg # of iterations =  3.0

     total cpu time spent up to now is        7.4 secs

     total energy              =    -413.84879843 Ry
     estimated scf accuracy    <       0.00014221 Ry

     iteration #  8     ecut=    90.00 Ry     beta= 0.70
     Davidson diagonalization with overlap
     ethr =  1.48E-07,  avg # of iterations =  6.0

     total cpu time spent up to now is        8.8 secs

     total energy              =    -413.84884665 Ry
     estimated scf accuracy    <       0.00105035 Ry

     iteration #  9     ecut=    90.00 Ry     beta= 0.70
     Davidson diagonalization with overlap
     ethr =  1.48E-07,  avg # of iterations =  4.0

     total cpu time spent up to now is        9.9 secs

     total energy              =    -413.84888855 Ry
     estimated scf accuracy    <       0.00011192 Ry

     iteration # 10     ecut=    90.00 Ry     beta= 0.70
     Davidson diagonalization with overlap
     ethr =  1.17E-07,  avg # of iterations =  2.0

     total cpu time spent up to now is       10.8 secs

     total energy              =    -413.84891494 Ry
     estimated scf accuracy    <       0.00000052 Ry

     iteration # 11     ecut=    90.00 Ry     beta= 0.70
     Davidson diagonalization with overlap
     ethr =  5.45E-10,  avg # of iterations =  5.1

     total cpu time spent up to now is       12.0 secs

     End of self-consistent calculation

          k = 0.0000 0.0000 0.0000 ( 29819 PWs)   bands (ev):

   -20.8669 -20.4129 -20.4129 -20.1917 -20.1917 -20.1646 -20.1646 -20.1492
   -20.1463 -19.8473 -19.8473 -19.5370  -8.2225  -8.0240  -7.9657  -7.9657
    -7.8840  -7.8840  -7.4632  -7.3118  -7.3118  -7.0958  -7.0958  -6.9640
    -6.8996  -6.0098  -6.0098  -5.4255  -5.4255  -5.3468  -5.3468  -5.0506
    -4.8650  -4.2239  -4.2239  -3.5635  -2.8494  -2.8494  -2.7502  -2.6713
    -2.6234  -2.6234  -2.4834  -2.4834  -2.4646  -2.4450  -2.3971  -2.3971

          k =-0.1498-0.0865 0.3111 ( 29881 PWs)   bands (ev):

   -20.7935 -20.4533 -20.4009 -20.3347 -20.3110 -20.2376 -20.0950 -20.0523
   -19.9983 -19.8537 -19.8122 -19.5965  -8.1678  -8.0891  -8.0119  -7.9651
    -7.8662  -7.8042  -7.4608  -7.2815  -7.2674  -7.1307  -7.0039  -6.9678
    -6.7655  -6.1556  -6.0262  -5.7576  -5.4371  -5.3016  -5.1615  -4.9386
    -4.8829  -4.2145  -4.1535  -3.6957  -2.9655  -2.8931  -2.7746  -2.7162
    -2.6604  -2.6252  -2.5832  -2.5198  -2.4561  -2.4170  -2.3825  -2.3353

          k = 0.2996 0.1730-0.6221 ( 29864 PWs)   bands (ev):

   -20.6037 -20.6022 -20.4349 -20.4198 -20.3109 -20.3064 -20.0394 -20.0297
   -19.8607 -19.8575 -19.7501 -19.7309  -8.1437  -8.0860  -8.0017  -7.9806
    -7.8702  -7.8089  -7.4075  -7.2842  -7.2432  -7.1406  -6.9213  -6.9205
    -6.5234  -6.3835  -6.0799  -5.9208  -5.4376  -5.3557  -5.1575  -5.0006
    -4.4713  -4.3491  -4.0922  -3.8643  -3.0705  -2.9134  -2.7998  -2.7711
    -2.6989  -2.6785  -2.5887  -2.5295  -2.5103  -2.3793  -2.3682  -2.2897

          k =-0.1498 0.0865 0.6221 ( 29891 PWs)   bands (ev):

   -20.6448 -20.5097 -20.5001 -20.3821 -20.3601 -20.2950 -20.0452 -19.9646
   -19.9300 -19.8137 -19.7954 -19.7053  -8.1516  -8.0634  -8.0449  -7.9381
    -7.8880  -7.7951  -7.4124  -7.3213  -7.2693  -7.0374  -6.9702  -6.9163
    -6.5287  -6.3166  -6.2196  -5.7528  -5.5805  -5.3982  -5.0817  -4.8766
    -4.6736  -4.1800  -4.1559  -3.8780  -3.0477  -2.9565  -2.7882  -2.7420
    -2.7084  -2.6586  -2.6154  -2.5308  -2.4997  -2.3889  -2.3720  -2.2837

          k = 0.2996 0.3460-0.3111 ( 29864 PWs)   bands (ev):

   -20.6974 -20.5426 -20.4360 -20.4125 -20.3308 -20.2623 -20.0490 -19.9484
   -19.9385 -19.8510 -19.7901 -19.6801  -8.1587  -8.1335  -7.9816  -7.9589
    -7.8992  -7.8038  -7.4445  -7.3833  -7.2579  -7.0052  -6.9741  -6.9043
    -6.6546  -6.3523  -6.1143  -5.7737  -5.7339  -5.2338  -5.0492  -4.7887
    -4.5627  -4.3357  -4.1359  -3.8520  -2.9594  -2.8897  -2.8046  -2.7339
    -2.6805  -2.6288  -2.5679  -2.5591  -2.4750  -2.4344  -2.3746  -2.2714

          k = 0.1498 0.2595 0.0000 ( 29863 PWs)   bands (ev):

   -20.8139 -20.4868 -20.4317 -20.3020 -20.2742 -20.1934 -20.1157 -20.0440
   -20.0043 -19.8583 -19.8229 -19.5843  -8.2065  -8.1017  -8.0033  -7.9586
    -7.8407  -7.8346  -7.5159  -7.3758  -7.1891  -7.0994  -7.0327  -6.9217
    -6.8973  -6.1394  -6.0079  -5.7495  -5.6375  -5.1790  -5.0466  -4.9213
    -4.7388  -4.2930  -4.2015  -3.6552  -2.8508  -2.8308  -2.7870  -2.7001
    -2.6608  -2.6342  -2.5184  -2.5028  -2.4688  -2.4601  -2.3567  -2.3424

          k = 0.2996-0.1730-1.2442 ( 29888 PWs)   bands (ev):

   -20.6864 -20.6495 -20.4464 -20.3515 -20.2739 -20.2168 -20.0608 -20.0262
   -19.9135 -19.8926 -19.7148 -19.6986  -8.1860  -8.1477  -8.0145  -7.9789
    -7.8147  -7.8101  -7.5131  -7.4435  -7.1721  -7.1238  -6.9440  -6.8992
    -6.5875  -6.5448  -6.0789  -5.8588  -5.5457  -5.2997  -4.9231  -4.6694
    -4.5615  -4.4942  -4.0523  -3.8657  -2.8668  -2.8173  -2.8005  -2.7339
    -2.6630  -2.6050  -2.5845  -2.5115  -2.5016  -2.4559  -2.3219  -2.3077

          k = 0.0000 0.0000 0.9332 ( 29805 PWs)   bands (ev):

   -20.5908 -20.5908 -20.5120 -20.4679 -20.2914 -20.2914 -19.9744 -19.9744
   -19.8535 -19.8155 -19.7883 -19.7883  -8.1348  -8.1348  -7.9980  -7.8979
    -7.8979  -7.8874  -7.4532  -7.3514  -7.3514  -6.9129  -6.9129  -6.8752
    -6.4523  -6.4510  -6.4510  -5.7986  -5.4924  -5.4924  -4.8377  -4.6538
    -4.6538  -4.2008  -4.2008  -4.0324  -2.9023  -2.9023  -2.7803  -2.7201
    -2.6523  -2.6523  -2.5962  -2.5324  -2.5324  -2.4200  -2.4200  -2.2475

          k = 0.4494 0.2595 0.0000 ( 29855 PWs)   bands (ev):

   -20.7158 -20.5510 -20.5450 -20.3531 -20.2195 -20.2091 -20.0757 -20.0687
   -19.9143 -19.8215 -19.7879 -19.6695  -8.1802  -8.1371  -8.0695  -7.9159
    -7.8567  -7.7927  -7.5302  -7.3937  -7.2650  -7.0200  -6.9682  -6.9208
    -6.6917  -6.3163  -6.2393  -5.8115  -5.5598  -5.2944  -4.8475  -4.8083
    -4.6047  -4.3034  -4.1641  -3.8389  -2.8489  -2.8414  -2.7888  -2.7386
    -2.6784  -2.6199  -2.5510  -2.5283  -2.4771  -2.4330  -2.3736  -2.2893

          k = 0.2996 0.1730 0.3111 ( 29867 PWs)   bands (ev):

   -20.7440 -20.4982 -20.4102 -20.3973 -20.3101 -20.2530 -20.0631 -20.0339
   -19.9633 -19.8423 -19.7891 -19.6341  -8.1786  -8.1205  -8.0372  -7.9093
    -7.9044  -7.7541  -7.4799  -7.3512  -7.1719  -7.0985  -7.0524  -6.9545
    -6.6818  -6.1606  -5.9880  -5.9033  -5.6750  -5.3280  -5.0346  -4.8358
    -4.6783  -4.2808  -4.1444  -3.7386  -2.9777  -2.9019  -2.8266  -2.7725
    -2.6758  -2.6349  -2.5594  -2.5270  -2.4438  -2.4032  -2.3448  -2.3278

          k = 0.4494-0.2595-0.9332 ( 29883 PWs)   bands (ev):

   -20.6154 -20.6133 -20.4771 -20.4232 -20.2981 -20.2230 -20.1018 -20.0190
   -19.8775 -19.8240 -19.7737 -19.6917  -8.2072  -8.1081  -8.0675  -7.9164
    -7.8697  -7.7346  -7.5251  -7.3098  -7.1904  -7.1347  -6.9897  -6.9602
    -6.4217  -6.3831  -6.0633  -5.9150  -5.7283  -5.4159  -4.9926  -4.7133
    -4.4098  -4.3736  -4.1867  -3.8076  -2.9772  -2.9214  -2.8842  -2.7727
    -2.7376  -2.6507  -2.5094  -2.4875  -2.4566  -2.4162  -2.3468  -2.2924

          k = 0.2996-0.3460-0.6221 ( 29890 PWs)   bands (ev):

   -20.5710 -20.5655 -20.4658 -20.4555 -20.3294 -20.3277 -20.0226 -20.0155
   -19.8656 -19.8580 -19.7443 -19.7245  -8.2208  -8.0225  -7.9923  -7.9736
    -7.9380  -7.7385  -7.4394  -7.3194  -7.1685  -7.1225  -6.9687  -6.9635
    -6.3863  -6.2591  -6.0981  -5.9717  -5.6512  -5.6154  -4.9114  -4.8395
    -4.4172  -4.3743  -4.1961  -3.7914  -3.1010  -2.9358  -2.8819  -2.8120
    -2.7577  -2.6210  -2.5540  -2.5147  -2.4923  -2.3701  -2.3531  -2.2742

          k = 0.0000 0.0000-1.8663 ( 29880 PWs)   bands (ev):

   -20.5398 -20.5224 -20.4294 -20.4294 -20.4269 -20.4269 -19.9486 -19.9486
   -19.9155 -19.9155 -19.7291 -19.7127  -8.2683  -7.9860  -7.9860  -7.9646
    -7.9646  -7.7074  -7.4892  -7.3166  -7.0736  -7.0736  -7.0426  -7.0426
    -6.2127  -6.0328  -5.9779  -5.9779  -5.9697  -5.9697  -4.6934  -4.6934
    -4.4547  -4.4547  -4.2149  -3.7416  -3.1322  -2.9383  -2.9383  -2.8491
    -2.8491  -2.5665  -2.5492  -2.4518  -2.4518  -2.3833  -2.3833  -2.2491

          k = 0.2996-0.3460 0.3111 ( 29864 PWs)   bands (ev):

   -20.6973 -20.5417 -20.4425 -20.4082 -20.3279 -20.2630 -20.0501 -19.9622
   -19.9187 -19.8619 -19.7831 -19.6819  -8.1741  -8.1004  -8.0182  -7.9543
    -7.8715  -7.8109  -7.4915  -7.3521  -7.2336  -7.0431  -6.9383  -6.9250
    -6.6472  -6.2852  -6.2080  -5.8247  -5.5885  -5.2960  -5.1296  -4.6994
    -4.5411  -4.3234  -4.2050  -3.8305  -2.9672  -2.8613  -2.8208  -2.7306
    -2.6860  -2.6342  -2.5688  -2.5592  -2.4924  -2.4036  -2.3754  -2.2797

     highest occupied level (ev):    -2.2475

!    total energy              =    -413.84891582 Ry
     estimated scf accuracy    <       0.00000008 Ry

     The total energy is the sum of the following terms:
     one-electron contribution =    -292.06974627 Ry
     hartree contribution      =     180.34965144 Ry
     xc contribution           =    -101.18705412 Ry
     ewald contribution        =    -200.94176686 Ry

     convergence has been achieved in  11 iterations

     Forces acting on atoms (cartesian axes, Ry/au):

     atom    1 type  2   force =    -0.03617081    0.06810948    0.03369284
     atom    2 type  2   force =     0.03617081   -0.06810948   -0.03369284
     atom    3 type  2   force =    -0.04089914   -0.06537958    0.03369284
     atom    4 type  2   force =     0.04089914    0.06537958   -0.03369284
     atom    5 type  2   force =     0.07706995   -0.00272990    0.03369284
     atom    6 type  2   force =    -0.07706995    0.00272990   -0.03369284
     atom    7 type  2   force =    -0.03441034    0.02623535   -0.02373917
     atom    8 type  2   force =     0.03441034   -0.02623535    0.02373917
     atom    9 type  2   force =    -0.00551531   -0.04291790   -0.02373917
     atom   10 type  2   force =     0.00551531    0.04291790    0.02373917
     atom   11 type  2   force =     0.03992565    0.01668255   -0.02373917
     atom   12 type  2   force =    -0.03992565   -0.01668255    0.02373917
     atom   13 type  1   force =     0.00486877   -0.02950359   -0.04977289
     atom   14 type  1   force =    -0.00486877    0.02950359    0.04977289
     atom   15 type  1   force =     0.02311647    0.01896828   -0.04977289
     atom   16 type  1   force =    -0.02311647   -0.01896828    0.04977289
     atom   17 type  1   force =    -0.02798525    0.01053531   -0.04977289
     atom   18 type  1   force =     0.02798525   -0.01053531    0.04977289
     atom   19 type  1   force =     0.02952697   -0.04551484    0.00575711
     atom   20 type  1   force =    -0.02952697    0.04551484   -0.00575711
     atom   21 type  1   force =     0.02465352    0.04832853    0.00575711
     atom   22 type  1   force =    -0.02465352   -0.04832853   -0.00575711
     atom   23 type  1   force =    -0.05418050   -0.00281369    0.00575711
     atom   24 type  1   force =     0.05418050    0.00281369   -0.00575711
     atom   25 type  1   force =    -0.01493586   -0.00673085    0.01281633
     atom   26 type  1   force =     0.01493586    0.00673085   -0.01281633
     atom   27 type  1   force =     0.01329702   -0.00956941    0.01281633
     atom   28 type  1   force =    -0.01329702    0.00956941   -0.01281633
     atom   29 type  1   force =     0.00163884    0.01630026    0.01281633
     atom   30 type  1   force =    -0.00163884   -0.01630026   -0.01281633
     atom   31 type  1   force =    -0.03156148   -0.00687797    0.01847617
     atom   32 type  1   force =     0.03156148    0.00687797   -0.01847617
     atom   33 type  1   force =     0.02173724   -0.02389406    0.01847617
     atom   34 type  1   force =    -0.02173724    0.02389406   -0.01847617
     atom   35 type  1   force =     0.00982424    0.03077203    0.01847617
     atom   36 type  1   force =    -0.00982424   -0.03077203   -0.01847617

     Total force =     0.325735     Total SCF correction =     0.000448


     Computing stress (Cartesian axis) and pressure

          total   stress  (Ry/bohr**3)                   (kbar)     P=      -28.71
  -0.00027298  -0.00000000   0.00000000          -40.16       -0.00        0.00
   0.00000000  -0.00027298  -0.00000000            0.00      -40.16       -0.00
  -0.00000000  -0.00000000  -0.00003948           -0.00       -0.00       -5.81


     BFGS Geometry Optimization
     Energy error            =      0.0E+00 Ry
     Gradient error          =      7.7E-02 Ry/Bohr

     number of scf cycles    =   1
     number of bfgs steps    =   0

     energy             new  =    -413.8489158171 Ry

     new trust radius        =       0.0841572148 bohr
     new conv_thr            =       0.0000001000 Ry


ATOMIC_POSITIONS (crystal)
O                0.2727748975        0.0300388486        0.8567146936
O                0.7272251025        0.9699611624        0.1432852764
O                0.8567146936        0.2727748975        0.0300388486
O                0.1432852764        0.7272251025        0.9699611624
O                0.0300388486        0.8567146936        0.2727748975
O                0.9699611624        0.1432852764        0.7272251025
O                0.4739830848        0.7492281051        0.3307798285
O                0.5260169152        0.2507718949        0.6692201415
O                0.3307798285        0.4739830848        0.7492281051
O                0.6692201415        0.5260169152        0.2507718949
O                0.7492281051        0.3307798285        0.4739830848
O                0.2507718949        0.6692201415        0.5260169152
H                0.1616905197        0.0634159759        0.8062947992
H                0.8383094663        0.9365840161        0.1937052008
H                0.8062947992        0.1616905197        0.0634159759
H                0.1937052008        0.8383094663        0.9365840161
H                0.0634159759        0.8062947992        0.1616905197
H                0.9365840161        0.1937052008        0.8383094663
H                0.4157535510        0.2033499755        0.9973537015
H                0.5842464490        0.7966500395        0.0026462775
H                0.9973537015        0.4157535510        0.2033499755
H                0.0026462775        0.5842464490        0.7966500395
H                0.2033499755        0.9973537015        0.4157535510
H                0.7966500395        0.0026462775        0.5842464490
H                0.7196323125        0.4017655223        0.3968462714
H                0.2803676875        0.5982344477        0.6031537586
H                0.3968462714        0.7196323125        0.4017655223
H                0.6031537586        0.2803676875        0.5982344477
H                0.4017655223        0.3968462714        0.7196323125
H                0.5982344477        0.6031537586        0.2803676875
H                0.7414376924        0.2042361665        0.3630029071
H                0.2585623076        0.7957638185        0.6369970929
H                0.3630029071        0.7414376924        0.2042361665
H                0.6369970929        0.2585623076        0.7957638185
H                0.2042361665        0.3630029071        0.7414376924
H                0.7957638185        0.6369970929        0.2585623076



     Writing config-only to output data dir ./iceII/iceII.save/ :
     XML data file
     NEW-OLD atomic charge density approx. for the potential

     total cpu time spent up to now is       13.1 secs

     per-process dynamical memory:    27.3 Mb

     Self-consistent Calculation

     iteration #  1     ecut=    90.00 Ry     beta= 0.70
     Davidson diagonalization with overlap
     ethr =  1.00E-06,  avg # of iterations =  9.0

     negative rho (up, down):  4.733E-08 0.000E+00

     total cpu time spent up to now is       15.2 secs

     total energy              =    -413.90532112 Ry
     estimated scf accuracy    <       0.02293749 Ry

     iteration #  2     ecut=    90.00 Ry     beta= 0.70
     Davidson diagonalization with overlap
     ethr =  2.39E-05,  avg # of iterations =  3.0

     negative rho (up, down):  6.179E-08 0.000E+00

     total cpu time spent up to now is       16.2 secs

     total energy              =    -413.91145541 Ry
     estimated scf accuracy    <       0.00621184 Ry

     iteration #  3     ecut=    90.00 Ry     beta= 0.70
     Davidson diagonalization with overlap
     ethr =  6.47E-06,  avg # of iterations =  2.0

     negative rho (up, down):  7.445E-08 0.000E+00

     total cpu time spent up to now is       16.9 secs

     total energy              =    -413.91232351 Ry
     estimated scf accuracy    <       0.00019546 Ry

     iteration #  4     ecut=    90.00 Ry     beta= 0.70
     Davidson diagonalization with overlap
     ethr =  2.04E-07,  avg # of iterations =  5.0

     negative rho (up, down):  8.004E-08 0.000E+00

     total cpu time spent up to now is       18.0 secs

     total energy              =    -413.91242785 Ry
     estimated scf accuracy    <       0.00017056 Ry

     iteration #  5     ecut=    90.00 Ry     beta= 0.70
     Davidson diagonalization with overlap
     ethr =  1.78E-07,  avg # of iterations =  2.0

     negative rho (up, down):  8.286E-08 0.000E+00

     total cpu time spent up to now is       18.7 secs

     total energy              =    -413.91245130 Ry
     estimated scf accuracy    <       0.00001017 Ry

     iteration #  6     ecut=    90.00 Ry     beta= 0.70
     Davidson diagonalization with overlap
     ethr =  1.06E-08,  avg # of iterations =  4.9

     negative rho (up, down):  8.212E-08 0.000E+00

     total cpu time spent up to now is       19.9 secs

     total energy              =    -413.91245381 Ry
     estimated scf accuracy    <       0.00002012 Ry

     iteration #  7     ecut=    90.00 Ry     beta= 0.70
     Davidson diagonalization with overlap
     ethr =  1.06E-08,  avg # of iterations =  3.0

     negative rho (up, down):  8.190E-08 0.000E+00

     total cpu time spent up to now is       20.9 secs

     End of self-consistent calculation

          k = 0.0000 0.0000 0.0000 ( 29819 PWs)   bands (ev):

   -21.0953 -20.6670 -20.6670 -20.4511 -20.4511 -20.4288 -20.4288 -20.4175
   -20.4049 -20.1278 -20.1278 -19.8447  -8.5452  -8.3403  -8.2905  -8.2905
    -8.2636  -8.2636  -7.7671  -7.7671  -7.6885  -7.6382  -7.6382  -7.4815
    -7.0410  -5.9018  -5.9018  -5.3144  -5.3144  -5.2570  -5.2570  -4.9429
    -4.8700  -4.2066  -4.2066  -3.5536  -2.9194  -2.9194  -2.8551  -2.6984
    -2.6931  -2.6931  -2.5308  -2.5226  -2.5226  -2.5091  -2.4438  -2.4438

          k =-0.1498-0.0865 0.3111 ( 29881 PWs)   bands (ev):

   -21.0251 -20.7009 -20.6541 -20.5879 -20.5703 -20.5014 -20.3591 -20.3165
   -20.2682 -20.1373 -20.0984 -19.8990  -8.4988  -8.3885  -8.3302  -8.3050
    -8.2425  -8.1797  -7.8042  -7.7580  -7.6644  -7.6185  -7.5688  -7.5409
    -6.8226  -6.0593  -5.9343  -5.6501  -5.4137  -5.1523  -5.0841  -4.8547
    -4.7883  -4.2006  -4.1312  -3.6813  -3.0259  -2.9583  -2.8608  -2.7603
    -2.7310  -2.6890  -2.6477  -2.5620  -2.5063  -2.4578  -2.4351  -2.3869

          k = 0.2996 0.1730-0.6221 ( 29864 PWs)   bands (ev):

   -20.8485 -20.8370 -20.6885 -20.6605 -20.5763 -20.5668 -20.3050 -20.2904
   -20.1468 -20.1394 -20.0440 -20.0215  -8.4278  -8.4234  -8.3450  -8.3166
    -8.2344  -8.1674  -7.7886  -7.7387  -7.6701  -7.6580  -7.5178  -7.5069
    -6.4595  -6.3186  -5.9910  -5.8704  -5.3988  -5.3099  -4.9900  -4.8302
    -4.4068  -4.3090  -4.0729  -3.8609  -3.1197  -2.9785  -2.8726  -2.8126
    -2.7592  -2.7576  -2.6396  -2.5900  -2.5662  -2.4281  -2.4056  -2.3412

          k =-0.1498 0.0865 0.6221 ( 29891 PWs)   bands (ev):

   -20.8829 -20.7532 -20.7451 -20.6344 -20.6168 -20.5566 -20.3090 -20.2336
   -20.2064 -20.1028 -20.0847 -19.9993  -8.4404  -8.3947  -8.3829  -8.2819
    -8.2485  -8.1625  -7.7707  -7.7646  -7.7164  -7.5790  -7.5424  -7.5112
    -6.4861  -6.2113  -6.1532  -5.7016  -5.5123  -5.3469  -4.9293  -4.7368
    -4.5796  -4.1627  -4.1325  -3.8706  -3.0988  -3.0159  -2.8598  -2.7960
    -2.7813  -2.7105  -2.6788  -2.5843  -2.5581  -2.4371  -2.4107  -2.3343

          k = 0.2996 0.3460-0.3111 ( 29864 PWs)   bands (ev):

   -20.9337 -20.7892 -20.6775 -20.6724 -20.5798 -20.5210 -20.3183 -20.2291
   -20.2102 -20.1341 -20.0782 -19.9743  -8.4626  -8.4393  -8.3239  -8.2952
    -8.2511  -8.1570  -7.8673  -7.8332  -7.7261  -7.5516  -7.5269  -7.4867
    -6.5564  -6.2290  -5.9867  -5.7272  -5.7040  -5.1863  -4.8608  -4.7297
    -4.5254  -4.2859  -4.1092  -3.8317  -3.0219  -2.9584  -2.8783  -2.8093
    -2.7308  -2.6758  -2.6321  -2.6146  -2.5363  -2.4822  -2.4125  -2.3187

          k = 0.1498 0.2595 0.0000 ( 29863 PWs)   bands (ev):

   -21.0449 -20.7379 -20.6855 -20.5539 -20.5252 -20.4511 -20.3857 -20.3198
   -20.2777 -20.1385 -20.1037 -19.8873  -8.5236  -8.3953  -8.3301  -8.3033
    -8.2117  -8.1985  -7.8970  -7.8237  -7.6743  -7.6213  -7.5640  -7.4789
    -6.8582  -6.0052  -5.8951  -5.6803  -5.5661  -5.1088  -4.9550  -4.8126
    -4.7244  -4.2607  -4.1828  -3.6359  -2.9212  -2.9041  -2.8808  -2.7672
    -2.7077  -2.6862  -2.5692  -2.5506  -2.5428  -2.5053  -2.4006  -2.3875

          k = 0.2996-0.1730-1.2442 ( 29888 PWs)   bands (ev):

   -20.9223 -20.8922 -20.7007 -20.5986 -20.5288 -20.4686 -20.3387 -20.2999
   -20.1989 -20.1660 -20.0094 -19.9866  -8.4853  -8.4475  -8.3396  -8.3147
    -8.1799  -8.1614  -7.9632  -7.8771  -7.6910  -7.6158  -7.5101  -7.4789
    -6.4387  -6.4112  -5.9404  -5.8397  -5.4864  -5.2318  -4.8301  -4.6494
    -4.4846  -4.4534  -4.0204  -3.8348  -2.9389  -2.8934  -2.8819  -2.8118
    -2.7186  -2.6498  -2.6306  -2.5755  -2.5511  -2.5073  -2.3674  -2.3519

          k = 0.0000 0.0000 0.9332 ( 29805 PWs)   bands (ev):

   -20.8316 -20.8316 -20.7691 -20.7084 -20.5445 -20.5445 -20.2517 -20.2517
   -20.1394 -20.0907 -20.0774 -20.0774  -8.4399  -8.4399  -8.3610  -8.2394
    -8.2394  -8.2220  -7.8972  -7.7968  -7.7967  -7.4994  -7.4994  -7.4666
    -6.3146  -6.3146  -6.2687  -5.7950  -5.4523  -5.4523  -4.6492  -4.5878
    -4.5877  -4.1686  -4.1686  -4.0224  -2.9711  -2.9711  -2.8587  -2.8114
    -2.7015  -2.7015  -2.6509  -2.5897  -2.5897  -2.4577  -2.4577  -2.2940

          k = 0.4494 0.2595 0.0000 ( 29855 PWs)   bands (ev):

   -20.9518 -20.7954 -20.7944 -20.5987 -20.4801 -20.4628 -20.3493 -20.3394
   -20.1994 -20.1051 -20.0707 -19.9635  -8.4865  -8.4295  -8.3852  -8.2661
    -8.2188  -8.1424  -7.9763  -7.8351  -7.7522  -7.5554  -7.5263  -7.4888
    -6.5581  -6.1670  -6.1070  -5.8072  -5.4822  -5.2114  -4.8018  -4.7641
    -4.5232  -4.2566  -4.1353  -3.8092  -2.9216  -2.9123  -2.8754  -2.8177
    -2.7301  -2.6661  -2.6080  -2.5826  -2.5291  -2.4823  -2.4195  -2.3326

          k = 0.2996 0.1730 0.3111 ( 29867 PWs)   bands (ev):

   -20.9782 -20.7465 -20.6612 -20.6467 -20.5640 -20.5154 -20.3277 -20.3081
   -20.2322 -20.1300 -20.0753 -19.9324  -8.4842  -8.4173  -8.3512  -8.2782
    -8.2545  -8.1293  -7.8894  -7.7508  -7.6706  -7.6424  -7.5462  -7.5309
    -6.6647  -6.0676  -5.9315  -5.7842  -5.5990  -5.2017  -4.9627  -4.7721
    -4.6221  -4.2408  -4.1195  -3.7189  -3.0400  -2.9638  -2.9002  -2.8174
    -2.7382  -2.6935  -2.6218  -2.5835  -2.5020  -2.4614  -2.3915  -2.3686

          k = 0.4494-0.2595-0.9332 ( 29883 PWs)   bands (ev):

   -20.8571 -20.8549 -20.7265 -20.6666 -20.5529 -20.4892 -20.3624 -20.2929
   -20.1558 -20.1137 -20.0632 -19.9820  -8.4685  -8.4294  -8.3810  -8.2758
    -8.2314  -8.0945  -7.9464  -7.7743  -7.6775  -7.6519  -7.5363  -7.5185
    -6.3594  -6.2571  -5.9471  -5.9171  -5.6253  -5.2582  -4.9609  -4.6890
    -4.3662  -4.2961  -4.1506  -3.7815  -3.0423  -2.9809  -2.9424  -2.8228
    -2.7816  -2.7252  -2.5743  -2.5463  -2.5220  -2.4712  -2.3959  -2.3300

          k = 0.2996-0.3460-0.6221 ( 29890 PWs)   bands (ev):

   -20.8194 -20.8011 -20.7155 -20.6981 -20.5894 -20.5855 -20.2913 -20.2816
   -20.1493 -20.1401 -20.0388 -20.0143  -8.4750  -8.3698  -8.3404  -8.3108
    -8.2832  -8.1036  -7.8088  -7.7910  -7.6458  -7.6378  -7.5437  -7.5391
    -6.3211  -6.2085  -6.0045  -5.9507  -5.5279  -5.4892  -4.8211  -4.7483
    -4.3744  -4.3296  -4.1463  -3.7874  -3.1458  -2.9946  -2.9435  -2.8538
    -2.8096  -2.6778  -2.6257  -2.5786  -2.5582  -2.4247  -2.4046  -2.3131

          k = 0.0000 0.0000-1.8663 ( 29880 PWs)   bands (ev):

   -20.7927 -20.7547 -20.6829 -20.6829 -20.6739 -20.6739 -20.2289 -20.2289
   -20.1888 -20.1888 -20.0244 -20.0031  -8.4974  -8.3394  -8.3394  -8.3043
    -8.3043  -8.0630  -7.8303  -7.8292  -7.6050  -7.6050  -7.5905  -7.5905
    -6.1871  -6.1206  -5.8419  -5.8419  -5.8167  -5.8167  -4.6288  -4.6288
    -4.4240  -4.4240  -4.1333  -3.7360  -3.1708  -2.9928  -2.9928  -2.8882
    -2.8882  -2.6323  -2.6262  -2.5190  -2.5190  -2.4396  -2.4396  -2.2840

          k = 0.2996-0.3460 0.3111 ( 29864 PWs)   bands (ev):

   -20.9339 -20.7861 -20.6954 -20.6592 -20.5763 -20.5213 -20.3197 -20.2421
   -20.1889 -20.1482 -20.0705 -19.9762  -8.4752  -8.4114  -8.3422  -8.3116
    -8.2156  -8.1713  -7.8972  -7.8064  -7.7186  -7.5589  -7.5206  -7.4921
    -6.5621  -6.1611  -6.0881  -5.7688  -5.5621  -5.2433  -4.9735  -4.6106
    -4.4764  -4.3075  -4.1670  -3.8116  -3.0285  -2.9361  -2.8934  -2.8018
    -2.7275  -2.6906  -2.6259  -2.6208  -2.5539  -2.4510  -2.4152  -2.3262

     highest occupied level (ev):    -2.2840

!    total energy              =    -413.91245839 Ry
     estimated scf accuracy    <       0.00000007 Ry

     The total energy is the sum of the following terms:
     one-electron contribution =    -296.79799727 Ry
     hartree contribution      =     182.49130792 Ry
     xc contribution           =    -101.75329371 Ry
     ewald contribution        =    -197.85247533 Ry

     convergence has been achieved in   7 iterations

     Forces acting on atoms (cartesian axes, Ry/au):

     atom    1 type  2   force =    -0.00447167   -0.00278974    0.00458308
     atom    2 type  2   force =     0.00447167    0.00278974   -0.00458308
     atom    3 type  2   force =     0.00465183   -0.00247771    0.00458308
     atom    4 type  2   force =    -0.00465183    0.00247771   -0.00458308
     atom    5 type  2   force =    -0.00018015    0.00526745    0.00458308
     atom    6 type  2   force =     0.00018015   -0.00526745   -0.00458308
     atom    7 type  2   force =    -0.00043428   -0.00930293    0.00274984
     atom    8 type  2   force =     0.00043428    0.00930293   -0.00274984
     atom    9 type  2   force =     0.00827372    0.00427536    0.00274984
     atom   10 type  2   force =    -0.00827372   -0.00427536   -0.00274984
     atom   11 type  2   force =    -0.00783943    0.00502757    0.00274984
     atom   12 type  2   force =     0.00783943   -0.00502757   -0.00274984
     atom   13 type  1   force =    -0.01623967    0.01857987   -0.04464051
     atom   14 type  1   force =     0.01623967   -0.01857987    0.04464051
     atom   15 type  1   force =    -0.00797080   -0.02335390   -0.04464051
     atom   16 type  1   force =     0.00797080    0.02335390    0.04464051
     atom   17 type  1   force =     0.02421047    0.00477404   -0.04464051
     atom   18 type  1   force =    -0.02421047   -0.00477404    0.04464051
     atom   19 type  1   force =     0.02170360   -0.02084925    0.03291501
     atom   20 type  1   force =    -0.02170360    0.02084925   -0.03291501
     atom   21 type  1   force =     0.00720418    0.02922050    0.03291501
     atom   22 type  1   force =    -0.00720418   -0.02922050   -0.03291501
     atom   23 type  1   force =    -0.02890778   -0.00837125    0.03291501
     atom   24 type  1   force =     0.02890778    0.00837125   -0.03291501
     atom   25 type  1   force =     0.00148427    0.01726585    0.00631937
     atom   26 type  1   force =    -0.00148427   -0.01726585   -0.00631937
     atom   27 type  1   force =    -0.01569480   -0.00734751    0.00631937
     atom   28 type  1   force =     0.01569480    0.00734751   -0.00631937
     atom   29 type  1   force =     0.01421053   -0.00991834    0.00631937
     atom   30 type  1   force =    -0.01421053    0.00991834   -0.00631937
     atom   31 type  1   force =     0.00204363   -0.01958498   -0.00493678
     atom   32 type  1   force =    -0.00204363    0.01958498    0.00493678
     atom   33 type  1   force =     0.01593927    0.01156233   -0.00493678
     atom   34 type  1   force =    -0.01593927   -0.01156233    0.00493678
     atom   35 type  1   force =    -0.01798290    0.00802265   -0.00493678
     atom   36 type  1   force =     0.01798290   -0.00802265    0.00493678

     Total force =     0.181433     Total SCF correction =     0.000561


     Computing stress (Cartesian axis) and pressure

          total   stress  (Ry/bohr**3)                   (kbar)     P=       19.50
   0.00008254   0.00000000   0.00000000           12.14        0.00        0.00
  -0.00000000   0.00008254   0.00000000           -0.00       12.14        0.00
  -0.00000000   0.00000000   0.00023250           -0.00        0.00       34.20

     Energy error            =      6.4E-02 Ry
     Gradient error          =      4.5E-02 Ry/Bohr

     number of scf cycles    =   2
     number of bfgs steps    =   1

     energy             old  =    -413.8489158171 Ry
     energy             new  =    -413.9124583870 Ry

     CASE: energy            _new < energy            _old

     new trust radius        =       0.0775004706 bohr
     new conv_thr            =       0.0000001000 Ry


ATOMIC_POSITIONS (crystal)
O                0.2730107473        0.0328358402        0.8586024190
O                0.7269892527        0.9671641708        0.1413975510
O                0.8586024190        0.2730107473        0.0328358402
O                0.1413975510        0.7269892527        0.9671641708
O                0.0328358402        0.8586024190        0.2730107473
O                0.9671641708        0.1413975510        0.7269892527
O                0.4728548723        0.7486618482        0.3308459415
O                0.5271451277        0.2513381518        0.6691540285
O                0.3308459415        0.4728548723        0.7486618482
O                0.6691540285        0.5271451277        0.2513381518
O                0.7486618482        0.3308459415        0.4728548723
O                0.2513381518        0.6691540285        0.5271451277
H                0.1544209452        0.0576004301        0.8004657662
H                0.8455790408        0.9423995619        0.1995342338
H                0.8004657662        0.1544209452        0.0576004301
H                0.1995342338        0.8455790408        0.9423995619
H                0.0576004301        0.8004657662        0.1544209452
H                0.9423995619        0.1995342338        0.8455790408
H                0.4219267972        0.2048559476        1.0003959555
H                0.5780732028        0.7951440674       -0.0003959765
H                1.0003959555        0.4219267972        0.2048559476
H               -0.0003959765        0.5780732028        0.7951440674
H                0.2048559476        1.0003959555        0.4219267972
H                0.7951440674       -0.0003959765        0.5780732028
H                0.7201215413        0.4037126995        0.3976887337
H                0.2798784587        0.5962872705        0.6023112963
H                0.3976887337        0.7201215413        0.4037126995
H                0.6023112963        0.2798784587        0.5962872705
H                0.4037126995        0.3976887337        0.7201215413
H                0.5962872705        0.6023112963        0.2798784587
H                0.7417709914        0.2031226230        0.3641905397
H                0.2582290086        0.7968773620        0.6358094603
H                0.3641905397        0.7417709914        0.2031226230
H                0.6358094603        0.2582290086        0.7968773620
H                0.2031226230        0.3641905397        0.7417709914
H                0.7968773620        0.6358094603        0.2582290086



     Writing config-only to output data dir ./iceII/iceII.save/ :
     XML data file
     NEW-OLD atomic charge density approx. for the potential

     total cpu time spent up to now is       22.0 secs

     per-process dynamical memory:    27.3 Mb

     Self-consistent Calculation

     iteration #  1     ecut=    90.00 Ry     beta= 0.70
     Davidson diagonalization with overlap
     ethr =  1.00E-06,  avg # of iterations =  7.0

     total cpu time spent up to now is       23.6 secs

     total energy              =    -413.94659921 Ry
     estimated scf accuracy    <       0.00165652 Ry

     iteration #  2     ecut=    90.00 Ry     beta= 0.70
     Davidson diagonalization with overlap
     ethr =  1.73E-06,  avg # of iterations =  2.0

     total cpu time spent up to now is       24.4 secs

     total energy              =    -413.94684778 Ry
     estimated scf accuracy    <       0.00015008 Ry

     iteration #  3     ecut=    90.00 Ry     beta= 0.70
     Davidson diagonalization with overlap
     ethr =  1.56E-07,  avg # of iterations =  2.0

     total cpu time spent up to now is       25.1 secs

     total energy              =    -413.94687403 Ry
     estimated scf accuracy    <       0.00001447 Ry

     iteration #  4     ecut=    90.00 Ry     beta= 0.70
     Davidson diagonalization with overlap
     ethr =  1.51E-08,  avg # of iterations =  2.0

     total cpu time spent up to now is       25.9 secs

     total energy              =    -413.94687620 Ry
     estimated scf accuracy    <       0.00000068 Ry

     iteration #  5     ecut=    90.00 Ry     beta= 0.70
     Davidson diagonalization with overlap
     ethr =  7.13E-10,  avg # of iterations =  2.9

     total cpu time spent up to now is       26.8 secs

     End of self-consistent calculation

          k = 0.0000 0.0000 0.0000 ( 29819 PWs)   bands (ev):

   -21.0051 -20.5755 -20.5755 -20.3401 -20.3401 -20.3340 -20.3340 -20.3135
   -20.2967 -20.0071 -20.0071 -19.7319  -8.5982  -8.4149  -8.3834  -8.3834
    -8.3370  -8.3370  -7.9229  -7.9229  -7.8788  -7.8359  -7.8359  -7.6930
    -6.8819  -5.7170  -5.7170  -5.2293  -5.2293  -5.0594  -5.0594  -4.7595
    -4.7511  -4.0778  -4.0778  -3.4189  -2.9063  -2.9063  -2.8421  -2.6741
    -2.6741  -2.6585  -2.5262  -2.4865  -2.4865  -2.4753  -2.4224  -2.4224

          k =-0.1498-0.0865 0.3111 ( 29881 PWs)   bands (ev):

   -20.9355 -20.6095 -20.5711 -20.4815 -20.4546 -20.3944 -20.2605 -20.2145
   -20.1674 -20.0155 -19.9788 -19.7843  -8.5567  -8.4567  -8.4096  -8.3847
    -8.3248  -8.2671  -7.9657  -7.9286  -7.8584  -7.7969  -7.7629  -7.7383
    -6.6755  -5.8969  -5.7611  -5.5019  -5.3396  -5.0158  -4.8735  -4.7223
    -4.5847  -4.0738  -4.0015  -3.5585  -3.0027  -2.9420  -2.8461  -2.7379
    -2.7147  -2.6595  -2.6278  -2.5251  -2.4892  -2.4272  -2.4109  -2.3665

          k = 0.2996 0.1730-0.6221 ( 29864 PWs)   bands (ev):

   -20.7800 -20.7260 -20.6011 -20.5494 -20.4799 -20.4453 -20.2199 -20.1747
   -20.0664 -20.0033 -19.9392 -19.8893  -8.4896  -8.4854  -8.4227  -8.3951
    -8.3224  -8.2487  -7.9531  -7.9207  -7.8530  -7.8351  -7.7149  -7.7020
    -6.2837  -6.1815  -5.8209  -5.7663  -5.2868  -5.2274  -4.7382  -4.6255
    -4.2247  -4.1787  -3.9530  -3.7748  -3.0860  -2.9630  -2.8594  -2.7826
    -2.7423  -2.7233  -2.6168  -2.5868  -2.5323  -2.4154  -2.3626  -2.3224

          k =-0.1498 0.0865 0.6221 ( 29891 PWs)   bands (ev):

   -20.7997 -20.6626 -20.6468 -20.5361 -20.5017 -20.4473 -20.2108 -20.1402
   -20.0971 -19.9897 -19.9679 -19.8746  -8.4983  -8.4610  -8.4549  -8.3752
    -8.3255  -8.2456  -7.9451  -7.9329  -7.8925  -7.7666  -7.7369  -7.7085
    -6.3223  -6.0554  -6.0118  -5.5743  -5.4041  -5.2379  -4.7184  -4.5069
    -4.4083  -4.0501  -3.9934  -3.7846  -3.0677  -2.9934  -2.8503  -2.7678
    -2.7486  -2.6914  -2.6612  -2.5605  -2.5408  -2.4184  -2.3742  -2.3123

          k = 0.2996 0.3460-0.3111 ( 29864 PWs)   bands (ev):

   -20.8444 -20.6930 -20.6233 -20.5366 -20.4682 -20.4135 -20.2216 -20.1480
   -20.0615 -20.0506 -19.9492 -19.8571  -8.5212  -8.4952  -8.3966  -8.3731
    -8.3373  -8.2450  -8.0364  -8.0060  -7.9126  -7.7470  -7.7205  -7.6851
    -6.3997  -6.0554  -5.8170  -5.6278  -5.5728  -5.0554  -4.6251  -4.5477
    -4.4161  -4.1376  -3.9803  -3.7242  -2.9970  -2.9431  -2.8632  -2.7888
    -2.7034  -2.6444  -2.6168  -2.5916  -2.5258  -2.4634  -2.3704  -2.2938

          k = 0.1498 0.2595 0.0000 ( 29863 PWs)   bands (ev):

   -20.9543 -20.6474 -20.5948 -20.4512 -20.4184 -20.3414 -20.2868 -20.2159
   -20.1744 -20.0194 -19.9823 -19.7739  -8.5762  -8.4602  -8.4060  -8.3760
    -8.2998  -8.2917  -8.0608  -7.9898  -7.8705  -7.8088  -7.7570  -7.6868
    -6.7003  -5.8117  -5.7355  -5.5407  -5.4462  -4.9527  -4.7870  -4.6336
    -4.6027  -4.1255  -4.0608  -3.5008  -2.9078  -2.8908  -2.8693  -2.7481
    -2.6816  -2.6519  -2.5490  -2.5380  -2.5185  -2.4759  -2.3702  -2.3586

          k = 0.2996-0.1730-1.2442 ( 29888 PWs)   bands (ev):

   -20.8290 -20.8032 -20.6110 -20.4963 -20.4230 -20.3587 -20.2410 -20.1942
   -20.0922 -20.0463 -19.8984 -19.8663  -8.5379  -8.5019  -8.4087  -8.3838
    -8.2684  -8.2565  -8.1352  -8.0515  -7.8876  -7.7985  -7.7107  -7.6794
    -6.2687  -6.2583  -5.7711  -5.7145  -5.3437  -5.0663  -4.6391  -4.5238
    -4.3554  -4.2983  -3.8852  -3.7143  -2.9229  -2.8801  -2.8696  -2.7952
    -2.6911  -2.6130  -2.6059  -2.5688  -2.5326  -2.4831  -2.3358  -2.3191

          k = 0.0000 0.0000 0.9332 ( 29805 PWs)   bands (ev):

   -20.7378 -20.7378 -20.7055 -20.5757 -20.4411 -20.4411 -20.1474 -20.1474
   -20.0621 -19.9624 -19.9624 -19.9466  -8.4985  -8.4985  -8.4274  -8.3284
    -8.3157  -8.3157  -8.0634  -7.9762  -7.9762  -7.6965  -7.6965  -7.6661
    -6.1597  -6.1597  -6.0371  -5.7463  -5.3183  -5.3183  -4.4141  -4.4141
    -4.3773  -4.0517  -4.0517  -3.9542  -2.9514  -2.9514  -2.8397  -2.8063
    -2.6691  -2.6691  -2.6204  -2.5817  -2.5817  -2.4233  -2.4233  -2.2684

          k = 0.4494 0.2595 0.0000 ( 29855 PWs)   bands (ev):

   -20.8603 -20.7057 -20.7023 -20.4911 -20.3866 -20.3538 -20.2493 -20.2214
   -20.0997 -19.9914 -19.9506 -19.8473  -8.5389  -8.4860  -8.4454  -8.3441
    -8.3060  -8.2380  -8.1460  -8.0111  -7.9419  -7.7504  -7.7194  -7.6913
    -6.3986  -5.9851  -5.9488  -5.7074  -5.3132  -5.0354  -4.6601  -4.6354
    -4.3325  -4.1259  -4.0136  -3.6836  -2.9044  -2.8956  -2.8678  -2.8012
    -2.7026  -2.6357  -2.5888  -2.5662  -2.5051  -2.4585  -2.3944  -2.2962

          k = 0.2996 0.1730 0.3111 ( 29867 PWs)   bands (ev):

   -20.8884 -20.6554 -20.5816 -20.5406 -20.4459 -20.4058 -20.2310 -20.2111
   -20.1144 -20.0251 -19.9524 -19.8152  -8.5393  -8.4746  -8.4244  -8.3536
    -8.3427  -8.2204  -8.0557  -7.9200  -7.8579  -7.8396  -7.7397  -7.7247
    -6.5173  -5.9120  -5.8068  -5.5618  -5.5090  -5.0513  -4.7609  -4.6158
    -4.5104  -4.0847  -3.9918  -3.5976  -3.0157  -2.9445  -2.8830  -2.7897
    -2.7155  -2.6703  -2.6000  -2.5629  -2.4927  -2.4415  -2.3722  -2.3243

          k = 0.4494-0.2595-0.9332 ( 29883 PWs)   bands (ev):

   -20.7692 -20.7627 -20.6382 -20.5604 -20.4450 -20.3805 -20.2611 -20.1859
   -20.0406 -20.0170 -19.9514 -19.8544  -8.5128  -8.4889  -8.4438  -8.3551
    -8.3181  -8.1838  -8.1158  -7.9582  -7.8707  -7.8377  -7.7331  -7.7129
    -6.2178  -6.1018  -5.8263  -5.7627  -5.4486  -5.0543  -4.8273  -4.5665
    -4.2465  -4.1089  -4.0211  -3.6640  -3.0172  -2.9574  -2.9189  -2.7951
    -2.7524  -2.7099  -2.5626  -2.5256  -2.5156  -2.4554  -2.3724  -2.2830

          k = 0.2996-0.3460-0.6221 ( 29890 PWs)   bands (ev):

   -20.7503 -20.6908 -20.6254 -20.6004 -20.4813 -20.4652 -20.1996 -20.1759
   -20.0403 -20.0200 -19.9567 -19.8680  -8.5187  -8.4390  -8.4137  -8.3902
    -8.3638  -8.1913  -7.9802  -7.9627  -7.8343  -7.8229  -7.7405  -7.7349
    -6.1494  -6.0987  -5.8490  -5.8164  -5.3784  -5.3417  -4.6261  -4.5657
    -4.2533  -4.2161  -3.9634  -3.7046  -3.1039  -2.9721  -2.9220  -2.8236
    -2.7774  -2.6698  -2.6009  -2.5646  -2.5470  -2.4109  -2.3842  -2.2701

          k = 0.0000 0.0000-1.8663 ( 29880 PWs)   bands (ev):

   -20.7161 -20.6343 -20.6285 -20.6285 -20.5301 -20.5301 -20.1362 -20.1362
   -20.0642 -20.0642 -19.9558 -19.8489  -8.5303  -8.4052  -8.4052  -8.3865
    -8.3865  -8.1518  -8.0063  -7.9974  -7.8000  -7.8000  -7.7844  -7.7844
    -6.0683  -6.0239  -5.6951  -5.6951  -5.6172  -5.6172  -4.4265  -4.4265
    -4.3570  -4.3570  -3.9259  -3.6540  -3.1148  -2.9676  -2.9676  -2.8590
    -2.8590  -2.6282  -2.6038  -2.5126  -2.5126  -2.4217  -2.4217  -2.2344

          k = 0.2996-0.3460 0.3111 ( 29864 PWs)   bands (ev):

   -20.8432 -20.7039 -20.6008 -20.5492 -20.4684 -20.4163 -20.2120 -20.1463
   -20.0999 -20.0094 -19.9612 -19.8563  -8.5295  -8.4754  -8.4109  -8.3843
    -8.3122  -8.2554  -8.0624  -7.9830  -7.9065  -7.7475  -7.7205  -7.6885
    -6.4039  -6.0249  -5.8849  -5.6237  -5.4890  -5.1087  -4.7430  -4.4284
    -4.3254  -4.1814  -4.0465  -3.6993  -3.0044  -2.9182  -2.8785  -2.7845
    -2.6999  -2.6582  -2.6111  -2.5916  -2.5484  -2.4341  -2.3725  -2.3001

     highest occupied level (ev):    -2.2344

!    total energy              =    -413.94687637 Ry
     estimated scf accuracy    <       0.00000005 Ry

     The total energy is the sum of the following terms:
     one-electron contribution =    -295.30068997 Ry
     hartree contribution      =     181.81986641 Ry
     xc contribution           =    -101.67718890 Ry
     ewald contribution        =    -198.78886391 Ry

     convergence has been achieved in   5 iterations

     Forces acting on atoms (cartesian axes, Ry/au):

     atom    1 type  2   force =    -0.00203884   -0.00565110    0.00008112
     atom    2 type  2   force =     0.00203884    0.00565110   -0.00008112
     atom    3 type  2   force =     0.00591341    0.00105986    0.00008112
     atom    4 type  2   force =    -0.00591341   -0.00105986   -0.00008112
     atom    5 type  2   force =    -0.00387457    0.00459124    0.00008112
     atom    6 type  2   force =     0.00387457   -0.00459124   -0.00008112
     atom    7 type  2   force =     0.00705037   -0.00830490    0.00219858
     atom    8 type  2   force =    -0.00705037    0.00830490   -0.00219858
     atom    9 type  2   force =     0.00366707    0.01025825    0.00219858
     atom   10 type  2   force =    -0.00366707   -0.01025825   -0.00219858
     atom   11 type  2   force =    -0.01071744   -0.00195335    0.00219858
     atom   12 type  2   force =     0.01071744    0.00195335   -0.00219858
     atom   13 type  1   force =    -0.01012884    0.00805053   -0.02023810
     atom   14 type  1   force =     0.01012884   -0.00805053    0.02023810
     atom   15 type  1   force =    -0.00190754   -0.01279710   -0.02023810
     atom   16 type  1   force =     0.00190754    0.01279710    0.02023810
     atom   17 type  1   force =     0.01203638    0.00474657   -0.02023810
     atom   18 type  1   force =    -0.01203638   -0.00474657    0.02023810
     atom   19 type  1   force =     0.01300101   -0.00632512    0.01441758
     atom   20 type  1   force =    -0.01300101    0.00632512   -0.01441758
     atom   21 type  1   force =    -0.00102279    0.01442177    0.01441758
     atom   22 type  1   force =     0.00102279   -0.01442177   -0.01441758
     atom   23 type  1   force =    -0.01197822   -0.00809665    0.01441758
     atom   24 type  1   force =     0.01197822    0.00809665   -0.01441758
     atom   25 type  1   force =     0.00539420    0.01454759    0.00410397
     atom   26 type  1   force =    -0.00539420   -0.01454759   -0.00410397
     atom   27 type  1   force =    -0.01529568   -0.00260228    0.00410397
     atom   28 type  1   force =     0.01529568    0.00260228   -0.00410397
     atom   29 type  1   force =     0.00990148   -0.01194531    0.00410397
     atom   30 type  1   force =    -0.00990148    0.01194531   -0.00410397
     atom   31 type  1   force =     0.00200792   -0.01126039   -0.00355224
     atom   32 type  1   force =    -0.00200792    0.01126039    0.00355224
     atom   33 type  1   force =     0.00874783    0.00736910   -0.00355224
     atom   34 type  1   force =    -0.00874783   -0.00736910    0.00355224
     atom   35 type  1   force =    -0.01075574    0.00389129   -0.00355224
     atom   36 type  1   force =     0.01075574   -0.00389129    0.00355224

     Total force =     0.096577     Total SCF correction =     0.000291


     Computing stress (Cartesian axis) and pressure

          total   stress  (Ry/bohr**3)                   (kbar)     P=        8.66
   0.00003085  -0.00000000   0.00000000            4.54       -0.00        0.00
   0.00000000   0.00003085   0.00000000            0.00        4.54        0.00
  -0.00000000   0.00000000   0.00011484           -0.00        0.00       16.89

     Energy error            =      3.4E-02 Ry
     Gradient error          =      2.0E-02 Ry/Bohr

     number of scf cycles    =   3
     number of bfgs steps    =   2

     energy             old  =    -413.9124583870 Ry
     energy             new  =    -413.9468763671 Ry

     CASE: energy            _new < energy            _old

     new trust radius        =       0.0646254620 bohr
     new conv_thr            =       0.0000001000 Ry


ATOMIC_POSITIONS (crystal)
O                0.2730667976        0.0346834708        0.8601159583
O                0.7269332024        0.9653165402        0.1398840117
O                0.8601159583        0.2730667976        0.0346834708
O                0.1398840117        0.7269332024        0.9653165402
O                0.0346834708        0.8601159583        0.2730667976
O                0.9653165402        0.1398840117        0.7269332024
O                0.4726022122        0.7479747966        0.3306228036
O                0.5273977878        0.2520252034        0.6693771664
O                0.3306228036        0.4726022122        0.7479747966
O                0.6693771664        0.5273977878        0.2520252034
O                0.7479747966        0.3306228036        0.4726022122
O                0.2520252034        0.6693771664        0.5273977878
H                0.1483246112        0.0526895426        0.7958901019
H                0.8516753748        0.9473104494        0.2041098981
H                0.7958901019        0.1483246112        0.0526895426
H                0.2041098981        0.8516753748        0.9473104494
H                0.0526895426        0.7958901019        0.1483246112
H                0.9473104494        0.2041098981        0.8516753748
H                0.4269652195        0.2061468763        1.0023772384
H                0.5730347805        0.7938531387       -0.0023772594
H                1.0023772384        0.4269652195        0.2061468763
H               -0.0023772594        0.5730347805        0.7938531387
H                0.2061468763        1.0023772384        0.4269652195
H                0.7938531387       -0.0023772594        0.5730347805
H                0.7207895284        0.4060434471        0.3980091910
H                0.2792104716        0.5939565229        0.6019908390
H                0.3980091910        0.7207895284        0.4060434471
H                0.6019908390        0.2792104716        0.5939565229
H                0.4060434471        0.3980091910        0.7207895284
H                0.5939565229        0.6019908390        0.2792104716
H                0.7420368556        0.2019074601        0.3651053853
H                0.2579631444        0.7980925249        0.6348946147
H                0.3651053853        0.7420368556        0.2019074601
H                0.6348946147        0.2579631444        0.7980925249
H                0.2019074601        0.3651053853        0.7420368556
H                0.7980925249        0.6348946147        0.2579631444



     Writing config-only to output data dir ./iceII/iceII.save/ :
     XML data file
     NEW-OLD atomic charge density approx. for the potential

     total cpu time spent up to now is       27.9 secs

     per-process dynamical memory:    27.3 Mb

     Self-consistent Calculation

     iteration #  1     ecut=    90.00 Ry     beta= 0.70
     Davidson diagonalization with overlap
     ethr =  1.00E-06,  avg # of iterations =  7.0

     total cpu time spent up to now is       29.6 secs

     total energy              =    -413.95678463 Ry
     estimated scf accuracy    <       0.00167648 Ry

     iteration #  2     ecut=    90.00 Ry     beta= 0.70
     Davidson diagonalization with overlap
     ethr =  1.75E-06,  avg # of iterations =  2.9

     total cpu time spent up to now is       30.4 secs

     total energy              =    -413.95716826 Ry
     estimated scf accuracy    <       0.00033780 Ry

     iteration #  3     ecut=    90.00 Ry     beta= 0.70
     Davidson diagonalization with overlap
     ethr =  3.52E-07,  avg # of iterations =  2.9

     total cpu time spent up to now is       31.2 secs

     total energy              =    -413.95722908 Ry
     estimated scf accuracy    <       0.00001746 Ry

     iteration #  4     ecut=    90.00 Ry     beta= 0.70
     Davidson diagonalization with overlap
     ethr =  1.82E-08,  avg # of iterations =  2.9

     total cpu time spent up to now is       32.1 secs

     total energy              =    -413.95723210 Ry
     estimated scf accuracy    <       0.00000443 Ry

     iteration #  5     ecut=    90.00 Ry     beta= 0.70
     Davidson diagonalization with overlap
     ethr =  4.61E-09,  avg # of iterations =  2.0

     total cpu time spent up to now is       32.9 secs

     total energy              =    -413.95723260 Ry
     estimated scf accuracy    <       0.00000027 Ry

     iteration #  6     ecut=    90.00 Ry     beta= 0.70
     Davidson diagonalization with overlap
     ethr =  2.86E-10,  avg # of iterations =  4.0

     total cpu time spent up to now is       33.9 secs

     total energy              =    -413.95723272 Ry
     estimated scf accuracy    <       0.00000013 Ry

     iteration #  7     ecut=    90.00 Ry     beta= 0.70
     Davidson diagonalization with overlap
     ethr =  1.32E-10,  avg # of iterations =  2.0

     total cpu time spent up to now is       34.7 secs

     End of self-consistent calculation

          k = 0.0000 0.0000 0.0000 ( 29819 PWs)   bands (ev):

   -20.8943 -20.4696 -20.4696 -20.2159 -20.2159 -20.1890 -20.1890 -20.1778
   -20.1683 -19.8503 -19.8503 -19.5777  -8.5674  -8.4057  -8.4057  -8.3891
    -8.3190  -8.3190  -7.9773  -7.9640  -7.9640  -7.9325  -7.9325  -7.8056
    -6.7727  -5.5959  -5.5959  -5.1481  -5.1481  -4.9121  -4.9121  -4.6811
    -4.5914  -3.9550  -3.9550  -3.2937  -2.8791  -2.8791  -2.8152  -2.6493
    -2.6493  -2.6219  -2.5026  -2.4485  -2.4485  -2.4266  -2.3918  -2.3918

          k =-0.1498-0.0865 0.3111 ( 29881 PWs)   bands (ev):

   -20.8254 -20.5018 -20.4727 -20.3448 -20.3092 -20.2650 -20.1299 -20.0804
   -20.0370 -19.8581 -19.8226 -19.6284  -8.5284  -8.4515  -8.4117  -8.3691
    -8.3138  -8.2629  -8.0321  -7.9984  -7.9531  -7.8752  -7.8537  -7.8300
    -6.5700  -5.7874  -5.6398  -5.3969  -5.2622  -4.9268  -4.6975  -4.6202
    -4.4196  -3.9574  -3.8826  -3.4406  -2.9654  -2.9116  -2.8189  -2.7119
    -2.6926  -2.6333  -2.5845  -2.4854  -2.4646  -2.4005  -2.3684  -2.3382

          k = 0.2996 0.1730-0.6221 ( 29864 PWs)   bands (ev):

   -20.6837 -20.6025 -20.4991 -20.4083 -20.3517 -20.3055 -20.0975 -20.0348
   -19.9399 -19.8471 -19.7934 -19.7190  -8.4707  -8.4707  -8.4044  -8.3870
    -8.3141  -8.2404  -8.0303  -8.0098  -7.9417  -7.9141  -7.8008  -7.7827
    -6.1525  -6.0975  -5.7009  -5.6773  -5.1894  -5.1652  -4.5391  -4.4854
    -4.0764  -4.0590  -3.8435  -3.6872  -3.0361  -2.9322  -2.8314  -2.7552
    -2.7204  -2.6747  -2.5885  -2.5730  -2.4927  -2.3950  -2.3176  -2.2971

          k =-0.1498 0.0865 0.6221 ( 29891 PWs)   bands (ev):

   -20.6971 -20.5525 -20.5319 -20.4070 -20.3613 -20.3144 -20.0802 -20.0159
   -19.9596 -19.8392 -19.8145 -19.7089  -8.4792  -8.4441  -8.4395  -8.3721
    -8.3123  -8.2349  -8.0265  -8.0169  -7.9806  -7.8456  -7.8226  -7.7926
    -6.2095  -5.9490  -5.9065  -5.4736  -5.3223  -5.1491  -4.5597  -4.3291
    -4.2656  -3.9497  -3.8689  -3.6969  -3.0199  -2.9568  -2.8270  -2.7443
    -2.7021  -2.6684  -2.6315  -2.5361  -2.5104  -2.3919  -2.3374  -2.2813

          k = 0.2996 0.3460-0.3111 ( 29864 PWs)   bands (ev):

   -20.7349 -20.5856 -20.5198 -20.3976 -20.3256 -20.2846 -20.0933 -20.0221
   -19.9409 -19.8816 -19.7924 -19.6961  -8.4953  -8.4754  -8.3861  -8.3660
    -8.3271  -8.2364  -8.1138  -8.0851  -8.0069  -7.8323  -7.8104  -7.7721
    -6.2909  -5.9275  -5.7243  -5.5531  -5.4435  -4.9498  -4.4804  -4.3743
    -4.3206  -4.0135  -3.8621  -3.6131  -2.9565  -2.9123  -2.8352  -2.7631
    -2.6728  -2.6047  -2.5942  -2.5633  -2.5030  -2.4362  -2.3255  -2.2625

          k = 0.1498 0.2595 0.0000 ( 29863 PWs)   bands (ev):

   -20.8432 -20.5405 -20.4879 -20.3211 -20.2812 -20.1981 -20.1639 -20.0807
   -20.0462 -19.8624 -19.8231 -19.6190  -8.5454  -8.4461  -8.4115  -8.3574
    -8.2974  -8.2916  -8.1287  -8.0519  -7.9701  -7.8876  -7.8410  -7.7915
    -6.5908  -5.6751  -5.6459  -5.4334  -5.3370  -4.8238  -4.6644  -4.5172
    -4.4759  -4.0002  -3.9401  -3.3731  -2.8807  -2.8626  -2.8429  -2.7232
    -2.6537  -2.6137  -2.5325  -2.5032  -2.4862  -2.4369  -2.3329  -2.3219

          k = 0.2996-0.1730-1.2442 ( 29888 PWs)   bands (ev):

   -20.7146 -20.6963 -20.5038 -20.3661 -20.2911 -20.2124 -20.1256 -20.0562
   -19.9652 -19.8840 -19.7486 -19.7028  -8.5092  -8.4752  -8.4032  -8.3603
    -8.2696  -8.2537  -8.2147  -8.1264  -7.9905  -7.8752  -7.8070  -7.7700
    -6.1544  -6.1463  -5.6637  -5.6200  -5.2200  -4.9333  -4.5036  -4.4281
    -4.2416  -4.1506  -3.7709  -3.5866  -2.8931  -2.8524  -2.8398  -2.7723
    -2.6601  -2.5743  -2.5696  -2.5562  -2.5059  -2.4485  -2.2970  -2.2810

          k = 0.0000 0.0000 0.9332 ( 29805 PWs)   bands (ev):

   -20.6236 -20.6236 -20.6170 -20.4167 -20.3147 -20.3147 -20.0115 -20.0115
   -19.9565 -19.8083 -19.8083 -19.7680  -8.4754  -8.4754  -8.4060  -8.3414
    -8.3049  -8.3049  -8.1369  -8.0640  -8.0640  -7.7815  -7.7815  -7.7551
    -6.0488  -6.0488  -5.8623  -5.7241  -5.2123  -5.2123  -4.2764  -4.2764
    -4.1679  -3.9483  -3.9483  -3.8702  -2.9147  -2.9147  -2.8094  -2.7894
    -2.6325  -2.6325  -2.5827  -2.5669  -2.5669  -2.3831  -2.3831  -2.2372

          k = 0.4494 0.2595 0.0000 ( 29855 PWs)   bands (ev):

   -20.7489 -20.6003 -20.5892 -20.3477 -20.2711 -20.2229 -20.1133 -20.0763
   -19.9795 -19.8372 -19.7920 -19.6883  -8.5085  -8.4612  -8.4299  -8.3308
    -8.3072  -8.2395  -8.2167  -8.0903  -8.0385  -7.8402  -7.8024  -7.7884
    -6.2871  -5.8623  -5.8400  -5.6228  -5.1864  -4.9007  -4.5564  -4.5133
    -4.1885  -4.0073  -3.8972  -3.5576  -2.8729  -2.8657  -2.8422  -2.7769
    -2.6730  -2.6045  -2.5609  -2.5408  -2.4712  -2.4261  -2.3607  -2.2549

          k = 0.2996 0.1730 0.3111 ( 29867 PWs)   bands (ev):

   -20.7785 -20.5490 -20.4828 -20.4009 -20.3082 -20.2654 -20.1112 -20.0800
   -19.9660 -19.8819 -19.7944 -19.6562  -8.5109  -8.4595  -8.4146  -8.3392
    -8.3337  -8.2179  -8.1271  -7.9915  -7.9469  -7.9353  -7.8393  -7.8059
    -6.4121  -5.8164  -5.6968  -5.4598  -5.3774  -4.9466  -4.5919  -4.5066
    -4.4002  -3.9573  -3.8715  -3.4782  -2.9757  -2.9126  -2.8529  -2.7592
    -2.6913  -2.6395  -2.5669  -2.5322  -2.4733  -2.4126  -2.3461  -2.2776

          k = 0.4494-0.2595-0.9332 ( 29883 PWs)   bands (ev):

   -20.6650 -20.6498 -20.5315 -20.4202 -20.3139 -20.2488 -20.1283 -20.0531
   -19.8970 -19.8794 -19.8003 -19.6866  -8.4849  -8.4646  -8.4235  -8.3402
    -8.3063  -8.1982  -8.1689  -8.0502  -7.9712  -7.9240  -7.8274  -7.8006
    -6.1245  -5.9900  -5.7274  -5.6608  -5.3013  -4.9151  -4.7046  -4.4685
    -4.1297  -3.9726  -3.9053  -3.5426  -2.9739  -2.9218  -2.8844  -2.7651
    -2.7210  -2.6854  -2.5394  -2.5003  -2.4932  -2.4307  -2.3427  -2.2351

          k = 0.2996-0.3460-0.6221 ( 29890 PWs)   bands (ev):

   -20.6558 -20.5708 -20.5214 -20.4635 -20.3462 -20.3238 -20.0774 -20.0439
   -19.8954 -19.8632 -19.8259 -19.6945  -8.4929  -8.4214  -8.3937  -8.3790
    -8.3509  -8.1805  -8.0599  -8.0506  -7.9280  -7.9083  -7.8296  -7.8213
    -6.0515  -6.0019  -5.7485  -5.7015  -5.2668  -5.2205  -4.4833  -4.4209
    -4.1363  -4.1129  -3.8157  -3.6219  -3.0422  -2.9381  -2.8889  -2.7921
    -2.7399  -2.6555  -2.5681  -2.5414  -2.5219  -2.3894  -2.3585  -2.2252

          k = 0.0000 0.0000-1.8663 ( 29880 PWs)   bands (ev):

   -20.6233 -20.5320 -20.5320 -20.4815 -20.3836 -20.3836 -20.0189 -20.0189
   -19.8963 -19.8963 -19.8404 -19.6744  -8.4981  -8.3844  -8.3844  -8.3688
    -8.3688  -8.1386  -8.0877  -8.0864  -7.8977  -7.8977  -7.8749  -7.8749
    -6.0416  -5.8715  -5.6245  -5.6245  -5.4376  -5.4376  -4.2987  -4.2987
    -4.2531  -4.2531  -3.7772  -3.5726  -3.0324  -2.9330  -2.9330  -2.8277
    -2.8277  -2.6232  -2.5659  -2.4930  -2.4930  -2.3976  -2.3976  -2.1859

          k = 0.2996-0.3460 0.3111 ( 29864 PWs)   bands (ev):

   -20.7333 -20.5989 -20.4995 -20.4026 -20.3312 -20.2873 -20.0742 -20.0325
   -19.9602 -19.8546 -19.8055 -19.6949  -8.5015  -8.4607  -8.4007  -8.3641
    -8.3094  -8.2510  -8.1398  -8.0616  -8.0006  -7.8273  -7.8134  -7.7766
    -6.2918  -5.9374  -5.7350  -5.5188  -5.4208  -5.0014  -4.5711  -4.2861
    -4.2219  -4.0443  -3.9387  -3.5865  -2.9645  -2.8849  -2.8499  -2.7612
    -2.6701  -2.6228  -2.5838  -2.5577  -2.5298  -2.4085  -2.3277  -2.2677

     highest occupied level (ev):    -2.1859

!    total energy              =    -413.95723274 Ry
     estimated scf accuracy    <          2.7E-09 Ry

     The total energy is the sum of the following terms:
     one-electron contribution =    -293.03868709 Ry
     hartree contribution      =     180.79620771 Ry
     xc contribution           =    -101.50986142 Ry
     ewald contribution        =    -200.20489195 Ry

     convergence has been achieved in   7 iterations

     Forces acting on atoms (cartesian axes, Ry/au):

     atom    1 type  2   force =    -0.00079203   -0.00516216   -0.00157439
     atom    2 type  2   force =     0.00079203    0.00516216    0.00157439
     atom    3 type  2   force =     0.00486657    0.00189516   -0.00157439
     atom    4 type  2   force =    -0.00486657   -0.00189516    0.00157439
     atom    5 type  2   force =    -0.00407455    0.00326699   -0.00157439
     atom    6 type  2   force =     0.00407455   -0.00326699    0.00157439
     atom    7 type  2   force =    -0.00396635   -0.00559100   -0.00234759
     atom    8 type  2   force =     0.00396635    0.00559100    0.00234759
     atom    9 type  2   force =     0.00682513   -0.00063946   -0.00234759
     atom   10 type  2   force =    -0.00682513    0.00063946    0.00234759
     atom   11 type  2   force =    -0.00285877    0.00623046   -0.00234759
     atom   12 type  2   force =     0.00285877   -0.00623046    0.00234759
     atom   13 type  1   force =    -0.00432440   -0.00182738   -0.00037817
     atom   14 type  1   force =     0.00432440    0.00182738    0.00037817
     atom   15 type  1   force =     0.00374476   -0.00283135   -0.00037817
     atom   16 type  1   force =    -0.00374476    0.00283135    0.00037817
     atom   17 type  1   force =     0.00057964    0.00465873   -0.00037817
     atom   18 type  1   force =    -0.00057964   -0.00465873    0.00037817
     atom   19 type  1   force =     0.00557597    0.00400439   -0.00254015
     atom   20 type  1   force =    -0.00557597   -0.00400439    0.00254015
     atom   21 type  1   force =    -0.00625589    0.00282674   -0.00254015
     atom   22 type  1   force =     0.00625589   -0.00282674    0.00254015
     atom   23 type  1   force =     0.00067992   -0.00683113   -0.00254015
     atom   24 type  1   force =    -0.00067992    0.00683113    0.00254015
     atom   25 type  1   force =     0.00213245   -0.00349745    0.00365683
     atom   26 type  1   force =    -0.00213245    0.00349745   -0.00365683
     atom   27 type  1   force =     0.00196265    0.00359548    0.00365683
     atom   28 type  1   force =    -0.00196265   -0.00359548   -0.00365683
     atom   29 type  1   force =    -0.00409511   -0.00009803    0.00365683
     atom   30 type  1   force =     0.00409511    0.00009803   -0.00365683
     atom   31 type  1   force =    -0.00222073   -0.00211572    0.00041575
     atom   32 type  1   force =     0.00222073    0.00211572   -0.00041575
     atom   33 type  1   force =     0.00294264   -0.00086535    0.00041575
     atom   34 type  1   force =    -0.00294264    0.00086535   -0.00041575
     atom   35 type  1   force =    -0.00072190    0.00298107    0.00041575
     atom   36 type  1   force =     0.00072190   -0.00298107   -0.00041575

     Total force =     0.034446     Total SCF correction =     0.000080


     Computing stress (Cartesian axis) and pressure

          total   stress  (Ry/bohr**3)                   (kbar)     P=       -9.28
  -0.00008669   0.00000000  -0.00000000          -12.75        0.00       -0.00
  -0.00000000  -0.00008669  -0.00000000           -0.00      -12.75       -0.00
  -0.00000000  -0.00000000  -0.00001579           -0.00       -0.00       -2.32

     Energy error            =      1.0E-02 Ry
     Gradient error          =      6.8E-03 Ry/Bohr

     number of scf cycles    =   4
     number of bfgs steps    =   3

     energy             old  =    -413.9468763671 Ry
     energy             new  =    -413.9572327437 Ry

     CASE: energy            _new < energy            _old

     new trust radius        =       0.0085108572 bohr
     new conv_thr            =       0.0000000683 Ry


ATOMIC_POSITIONS (crystal)
O                0.2730237749        0.0344561715        0.8602510560
O                0.7269762251        0.9655438395        0.1397489140
O                0.8602510560        0.2730237749        0.0344561715
O                0.1397489140        0.7269762251        0.9655438395
O                0.0344561715        0.8602510560        0.2730237749
O                0.9655438395        0.1397489140        0.7269762251
O                0.4723231201        0.7474528604        0.3306976730
O                0.5276768799        0.2525471396        0.6693022970
O                0.3306976730        0.4723231201        0.7474528604
O                0.6693022970        0.5276768799        0.2525471396
O                0.7474528604        0.3306976730        0.4723231201
O                0.2525471396        0.6693022970        0.5276768799
H                0.1477487255        0.0522210426        0.7957683287
H                0.8522512605        0.9477789494        0.2042316713
H                0.7957683287        0.1477487255        0.0522210426
H                0.2042316713        0.8522512605        0.9477789494
H                0.0522210426        0.7957683287        0.1477487255
H                0.9477789494        0.2042316713        0.8522512605
H                0.4272173614        0.2061894951        1.0019548094
H                0.5727826386        0.7938105199       -0.0019548304
H                1.0019548094        0.4272173614        0.2061894951
H               -0.0019548304        0.5727826386        0.7938105199
H                0.2061894951        1.0019548094        0.4272173614
H                0.7938105199       -0.0019548304        0.5727826386
H                0.7213265566        0.4063430890        0.3983552279
H                0.2786734434        0.5936568810        0.6016448021
H                0.3983552279        0.7213265566        0.4063430890
H                0.6016448021        0.2786734434        0.5936568810
H                0.4063430890        0.3983552279        0.7213265566
H                0.5936568810        0.6016448021        0.2786734434
H                0.7420509341        0.2017738411        0.3653637522
H                0.2579490659        0.7982261439        0.6346362478
H                0.3653637522        0.7420509341        0.2017738411
H                0.6346362478        0.2579490659        0.7982261439
H                0.2017738411        0.3653637522        0.7420509341
H                0.7982261439        0.6346362478        0.2579490659



     Writing config-only to output data dir ./iceII/iceII.save/ :
     XML data file
     NEW-OLD atomic charge density approx. for the potential

     total cpu time spent up to now is       35.8 secs

     per-process dynamical memory:    27.3 Mb

     Self-consistent Calculation

     iteration #  1     ecut=    90.00 Ry     beta= 0.70
     Davidson diagonalization with overlap
     ethr =  1.00E-06,  avg # of iterations =  3.4

     total cpu time spent up to now is       37.0 secs

     total energy              =    -413.95814768 Ry
     estimated scf accuracy    <       0.00013799 Ry

     iteration #  2     ecut=    90.00 Ry     beta= 0.70
     Davidson diagonalization with overlap
     ethr =  1.44E-07,  avg # of iterations =  2.0

     total cpu time spent up to now is       37.8 secs

     total energy              =    -413.95817717 Ry
     estimated scf accuracy    <       0.00001736 Ry

     iteration #  3     ecut=    90.00 Ry     beta= 0.70
     Davidson diagonalization with overlap
     ethr =  1.81E-08,  avg # of iterations =  2.0

     total cpu time spent up to now is       38.6 secs

     total energy              =    -413.95818091 Ry
     estimated scf accuracy    <       0.00000124 Ry

     iteration #  4     ecut=    90.00 Ry     beta= 0.70
     Davidson diagonalization with overlap
     ethr =  1.29E-09,  avg # of iterations =  2.0

     total cpu time spent up to now is       39.4 secs

     total energy              =    -413.95818117 Ry
     estimated scf accuracy    <       0.00000010 Ry

     iteration #  5     ecut=    90.00 Ry     beta= 0.70
     Davidson diagonalization with overlap
     ethr =  9.97E-11,  avg # of iterations =  2.1

     total cpu time spent up to now is       40.2 secs

     End of self-consistent calculation

          k = 0.0000 0.0000 0.0000 ( 29819 PWs)   bands (ev):

   -20.8923 -20.4711 -20.4711 -20.2143 -20.2143 -20.1789 -20.1789 -20.1728
   -20.1624 -19.8394 -19.8394 -19.5687  -8.5662  -8.4162  -8.4043  -8.4043
    -8.3218  -8.3218  -7.9721  -7.9721  -7.9600  -7.9296  -7.9296  -7.8056
    -6.7657  -5.5925  -5.5925  -5.1424  -5.1424  -4.9044  -4.9044  -4.6826
    -4.5852  -3.9493  -3.9493  -3.2854  -2.8776  -2.8776  -2.8160  -2.6511
    -2.6511  -2.6205  -2.5079  -2.4524  -2.4524  -2.4269  -2.3933  -2.3933

          k =-0.1498-0.0865 0.3111 ( 29881 PWs)   bands (ev):

   -20.8241 -20.5029 -20.4757 -20.3381 -20.2997 -20.2595 -20.1254 -20.0755
   -20.0323 -19.8470 -19.8120 -19.6186  -8.5294  -8.4533  -8.4167  -8.3888
    -8.3178  -8.2698  -8.0311  -7.9939  -7.9485  -7.8716  -7.8499  -7.8284
    -6.5646  -5.7834  -5.6376  -5.3917  -5.2542  -4.9232  -4.6920  -4.6148
    -4.4141  -3.9520  -3.8784  -3.4320  -2.9631  -2.9094  -2.8197  -2.7132
    -2.6945  -2.6356  -2.5860  -2.4872  -2.4671  -2.4036  -2.3707  -2.3421

          k = 0.2996 0.1730-0.6221 ( 29864 PWs)   bands (ev):

   -20.6868 -20.5994 -20.5011 -20.4002 -20.3453 -20.2974 -20.0950 -20.0294
   -19.9370 -19.8371 -19.7843 -19.7054  -8.4729  -8.4717  -8.4211  -8.3949
    -8.3244  -8.2505  -8.0233  -8.0059  -7.9344  -7.9081  -7.7954  -7.7813
    -6.1535  -6.0888  -5.6929  -5.6770  -5.1843  -5.1585  -4.5343  -4.4811
    -4.0716  -4.0512  -3.8407  -3.6790  -3.0331  -2.9294  -2.8300  -2.7596
    -2.7229  -2.6735  -2.5934  -2.5747  -2.4934  -2.3987  -2.3202  -2.3020

          k =-0.1498 0.0865 0.6221 ( 29891 PWs)   bands (ev):

   -20.6989 -20.5526 -20.5314 -20.4005 -20.3530 -20.3075 -20.0763 -20.0133
   -19.9547 -19.8298 -19.8043 -19.6960  -8.4790  -8.4508  -8.4446  -8.3918
    -8.3185  -8.2463  -8.0198  -8.0120  -7.9722  -7.8430  -7.8175  -7.7889
    -6.2058  -5.9447  -5.9029  -5.4693  -5.3163  -5.1430  -4.5557  -4.3239
    -4.2594  -3.9448  -3.8645  -3.6887  -3.0172  -2.9536  -2.8252  -2.7492
    -2.7022  -2.6720  -2.6334  -2.5381  -2.5115  -2.3956  -2.3406  -2.2855

          k = 0.2996 0.3460-0.3111 ( 29864 PWs)   bands (ev):

   -20.7342 -20.5862 -20.5213 -20.3906 -20.3165 -20.2789 -20.0904 -20.0184
   -19.9388 -19.8683 -19.7822 -19.6846  -8.4972  -8.4776  -8.3904  -8.3820
    -8.3334  -8.2520  -8.1023  -8.0811  -7.9997  -7.8290  -7.8102  -7.7717
    -6.2855  -5.9250  -5.7179  -5.5439  -5.4423  -4.9440  -4.4782  -4.3703
    -4.3128  -4.0067  -3.8579  -3.6069  -2.9539  -2.9093  -2.8346  -2.7625
    -2.6754  -2.6068  -2.5960  -2.5665  -2.5055  -2.4400  -2.3278  -2.2664

          k = 0.1498 0.2595 0.0000 ( 29863 PWs)   bands (ev):

   -20.8413 -20.5413 -20.4890 -20.3167 -20.2741 -20.1901 -20.1607 -20.0754
   -20.0416 -19.8513 -19.8119 -19.6096  -8.5449  -8.4536  -8.4104  -8.3709
    -8.3012  -8.3010  -8.1223  -8.0538  -7.9615  -7.8897  -7.8407  -7.7920
    -6.5843  -5.6702  -5.6392  -5.4277  -5.3357  -4.8175  -4.6570  -4.5157
    -4.4700  -3.9941  -3.9351  -3.3666  -2.8791  -2.8607  -2.8412  -2.7231
    -2.6547  -2.6136  -2.5379  -2.5066  -2.4899  -2.4393  -2.3350  -2.3241

          k = 0.2996-0.1730-1.2442 ( 29888 PWs)   bands (ev):

   -20.7119 -20.6967 -20.5046 -20.3621 -20.2844 -20.2040 -20.1242 -20.0507
   -19.9609 -19.8718 -19.7405 -19.6907  -8.5112  -8.4775  -8.4025  -8.3733
    -8.2754  -8.2745  -8.2010  -8.1248  -7.9810  -7.8778  -7.8067  -7.7715
[...]
O                0.2492715977        0.6646184841        0.5163116256
H                0.1430066151        0.0377339214        0.7942693701
H                0.8569933709        0.9622660706        0.2057306299
H                0.7942693701        0.1430066151        0.0377339214
H                0.2057306299        0.8569933709        0.9622660706
H                0.0377339214        0.7942693701        0.1430066151
H                0.9622660706        0.2057306299        0.8569933709
H                0.4226559953        0.1903457041        0.9883670085
H                0.5773440047        0.8096543109        0.0116329705
H                0.9883670085        0.4226559953        0.1903457041
H                0.0116329705        0.5773440047        0.8096543109
H                0.1903457041        0.9883670085        0.4226559953
H                0.8096543109        0.0116329705        0.5773440047
H                0.7291924829        0.4131786052        0.4105149519
H                0.2708075171        0.5868213648        0.5894850781
H                0.4105149519        0.7291924829        0.4131786052
H                0.5894850781        0.2708075171        0.5868213648
H                0.4131786052        0.4105149519        0.7291924829
H                0.5868213648        0.5894850781        0.2708075171
H                0.7453897846        0.2071035781        0.3762958067
H                0.2546102154        0.7928964069        0.6237041933
H                0.3762958067        0.7453897846        0.2071035781
H                0.6237041933        0.2546102154        0.7928964069
H                0.2071035781        0.3762958067        0.7453897846
H                0.7928964069        0.6237041933        0.2546102154



     Writing config-only to output data dir ./iceII/iceII.save/ :
     XML data file
     NEW-OLD atomic charge density approx. for the potential

     total cpu time spent up to now is      337.3 secs

     per-process dynamical memory:    33.2 Mb

     Self-consistent Calculation

     iteration #  1     ecut=    90.00 Ry     beta= 0.70
     Davidson diagonalization with overlap
     ethr =  1.00E-06,  avg # of iterations =  2.0

     Threshold (ethr) on eigenvalues was too large:
     Diagonalizing with lowered threshold

     Davidson diagonalization with overlap
     ethr =  6.62E-10,  avg # of iterations =  5.0

     total cpu time spent up to now is      339.2 secs

     total energy              =    -413.96578774 Ry
     estimated scf accuracy    <       0.00000106 Ry

     iteration #  2     ecut=    90.00 Ry     beta= 0.70
     Davidson diagonalization with overlap
     ethr =  1.10E-09,  avg # of iterations =  2.0

     total cpu time spent up to now is      340.0 secs

     total energy              =    -413.96578789 Ry
     estimated scf accuracy    <       0.00000006 Ry

     iteration #  3     ecut=    90.00 Ry     beta= 0.70
     Davidson diagonalization with overlap
     ethr =  5.85E-11,  avg # of iterations =  2.0

     total cpu time spent up to now is      340.8 secs

     total energy              =    -413.96578790 Ry
     estimated scf accuracy    <       0.00000001 Ry

     iteration #  4     ecut=    90.00 Ry     beta= 0.70
     Davidson diagonalization with overlap
     ethr =  1.10E-11,  avg # of iterations =  2.1

     total cpu time spent up to now is      341.6 secs

     End of self-consistent calculation

          k = 0.0000 0.0000 0.0000 ( 29819 PWs)   bands (ev):

   -20.8849 -20.4489 -20.4489 -20.2221 -20.2221 -20.2177 -20.1782 -20.1782
   -20.1492 -19.8715 -19.8715 -19.5634  -8.4472  -8.3207  -8.2971  -8.2971
    -8.2313  -8.2313  -7.9305  -7.9305  -7.9079  -7.9079  -7.8919  -7.8519
    -6.7554  -5.6581  -5.6581  -5.1447  -5.1447  -4.8771  -4.8771  -4.8394
    -4.6049  -3.9666  -3.9666  -3.2214  -2.8513  -2.8513  -2.7689  -2.6632
    -2.6632  -2.6059  -2.5408  -2.5185  -2.5185  -2.4579  -2.4113  -2.4113

          k =-0.1498-0.0865 0.3111 ( 29881 PWs)   bands (ev):

   -20.8153 -20.4805 -20.4433 -20.3585 -20.3289 -20.2652 -20.1341 -20.0767
   -20.0226 -19.8797 -19.8397 -19.6190  -8.4130  -8.3461  -8.3141  -8.2934
    -8.2271  -8.1826  -7.9906  -7.9540  -7.9199  -7.8653  -7.8221  -7.8083
    -6.5710  -5.8289  -5.6859  -5.4101  -5.2528  -4.9998  -4.6963  -4.6345
    -4.4313  -3.9709  -3.8999  -3.3720  -2.9297  -2.8729  -2.7855  -2.7284
    -2.7124  -2.6517  -2.5914  -2.5120  -2.4938  -2.4558  -2.4060  -2.3992

          k = 0.2996 0.1730-0.6221 ( 29864 PWs)   bands (ev):

   -20.6567 -20.6090 -20.4690 -20.4169 -20.3568 -20.3188 -20.0897 -20.0420
   -19.9322 -19.8630 -19.7857 -19.7309  -8.3663  -8.3620  -8.3166  -8.3032
    -8.2347  -8.1613  -7.9877  -7.9675  -7.9282  -7.8735  -7.7665  -7.7519
    -6.1976  -6.1068  -5.7333  -5.6775  -5.2244  -5.1917  -4.5569  -4.5137
    -4.0788  -4.0482  -3.8685  -3.6262  -2.9986  -2.8916  -2.7980  -2.7944
    -2.7381  -2.6588  -2.6315  -2.5586  -2.5175  -2.4461  -2.3771  -2.3711

          k =-0.1498 0.0865 0.6221 ( 29891 PWs)   bands (ev):

   -20.6805 -20.5327 -20.5222 -20.4112 -20.3770 -20.3160 -20.0832 -20.0051
   -19.9598 -19.8465 -19.8234 -19.7129  -8.3680  -8.3449  -8.3363  -8.3096
    -8.2218  -8.1576  -7.9854  -7.9723  -7.9578  -7.8223  -7.7870  -7.7570
    -6.2412  -5.9685  -5.9225  -5.4943  -5.3650  -5.1664  -4.5873  -4.3463
    -4.2686  -3.9551  -3.8705  -3.6444  -2.9875  -2.9126  -2.8032  -2.7626
    -2.7098  -2.6949  -2.6433  -2.5364  -2.5240  -2.4521  -2.3949  -2.3531

          k = 0.2996 0.3460-0.3111 ( 29864 PWs)   bands (ev):

   -20.7204 -20.5646 -20.4989 -20.4204 -20.3415 -20.2784 -20.1034 -20.0103
   -19.9178 -19.9053 -19.8014 -19.7005  -8.3803  -8.3692  -8.2950  -8.2857
    -8.2321  -8.1693  -8.0515  -8.0288  -7.9649  -7.8209  -7.8095  -7.7614
    -6.2970  -5.9519  -5.7660  -5.5438  -5.4884  -4.9735  -4.5490  -4.3965
    -4.2965  -3.9964  -3.8715  -3.5764  -2.9259  -2.8698  -2.8126  -2.7516
    -2.7011  -2.6365  -2.6053  -2.5825  -2.5088  -2.4930  -2.3712  -2.3299

          k = 0.1498 0.2595 0.0000 ( 29863 PWs)   bands (ev):

   -20.8325 -20.5185 -20.4651 -20.3397 -20.2870 -20.2172 -20.1539 -20.0887
   -20.0196 -19.8798 -19.8434 -19.6105  -8.4242  -8.3429  -8.3049  -8.2814
    -8.2155  -8.2077  -8.0504  -8.0032  -7.9252  -7.8744  -7.8411  -7.8147
    -6.5815  -5.7172  -5.6798  -5.4363  -5.3794  -4.8317  -4.7019  -4.5600
    -4.4711  -3.9981  -3.9544  -3.3222  -2.8520  -2.8331  -2.8019  -2.7135
    -2.6676  -2.6326  -2.5706  -2.5535  -2.5155  -2.4724  -2.3720  -2.3595

          k = 0.2996-0.1730-1.2442 ( 29888 PWs)   bands (ev):

   -20.7005 -20.6801 -20.4775 -20.3913 -20.2859 -20.2458 -20.0904 -20.0835
   -19.9303 -19.9068 -19.7509 -19.7123  -8.3886  -8.3638  -8.2992  -8.2811
    -8.1915  -8.1868  -8.1261  -8.0613  -7.9447  -7.8682  -7.8266  -7.7858
    -6.1627  -6.1382  -5.6941  -5.6462  -5.2874  -4.9580  -4.5224  -4.4629
    -4.2509  -4.1142  -3.7650  -3.5774  -2.8547  -2.8242  -2.8054  -2.7507
    -2.6728  -2.6292  -2.6183  -2.5558  -2.5476  -2.4753  -2.3401  -2.3245

          k = 0.0000 0.0000 0.9332 ( 29805 PWs)   bands (ev):

   -20.6068 -20.6068 -20.5816 -20.4753 -20.3078 -20.3078 -20.0255 -20.0255
   -19.9028 -19.8156 -19.8156 -19.7916  -8.3669  -8.3669  -8.3176  -8.2699
    -8.2163  -8.2163  -8.0792  -8.0084  -8.0084  -7.7791  -7.7791  -7.7466
    -6.0424  -6.0424  -5.9408  -5.7198  -5.2545  -5.2545  -4.3155  -4.3155
    -4.1694  -3.9385  -3.9385  -3.8171  -2.8787  -2.8787  -2.7887  -2.7562
    -2.6759  -2.6759  -2.6117  -2.5657  -2.5657  -2.4336  -2.4336  -2.3064

          k = 0.4494 0.2595 0.0000 ( 29855 PWs)   bands (ev):

   -20.7354 -20.5791 -20.5702 -20.3889 -20.2549 -20.2218 -20.1273 -20.0920
   -19.9374 -19.8498 -19.8068 -19.6919  -8.3889  -8.3514  -8.3266  -8.2495
    -8.2249  -8.1652  -8.1418  -8.0301  -7.9826  -7.8451  -7.8138  -7.8028
    -6.2850  -5.8672  -5.8328  -5.6865  -5.2515  -4.9426  -4.5963  -4.4891
    -4.1705  -4.0126  -3.9067  -3.5382  -2.8418  -2.8251  -2.8141  -2.7435
    -2.7004  -2.6425  -2.6020  -2.5798  -2.5042  -2.4528  -2.3870  -2.3059

          k = 0.2996 0.1730 0.3111 ( 29867 PWs)   bands (ev):

   -20.7667 -20.5263 -20.4512 -20.4204 -20.3269 -20.2766 -20.1029 -20.0707
   -19.9751 -19.8802 -19.8114 -19.6545  -8.3950  -8.3513  -8.3187  -8.2587
    -8.2404  -8.1492  -8.0588  -7.9493  -7.9290  -7.9035  -7.8406  -7.7877
    -6.4179  -5.8391  -5.7560  -5.4487  -5.4105  -4.9811  -4.6254  -4.4841
    -4.4309  -3.9491  -3.8836  -3.4398  -2.9510  -2.8591  -2.8168  -2.7823
    -2.7221  -2.6455  -2.5805  -2.5647  -2.4939  -2.4620  -2.3906  -2.3332

          k = 0.4494-0.2595-0.9332 ( 29883 PWs)   bands (ev):

   -20.6458 -20.6341 -20.5054 -20.4493 -20.3246 -20.2487 -20.1359 -20.0443
   -19.9035 -19.8630 -19.8066 -19.7011  -8.3715  -8.3498  -8.3226  -8.2514
    -8.2219  -8.1160  -8.1108  -8.0063  -7.9400  -7.9075  -7.8309  -7.7962
    -6.1467  -5.9818  -5.8040  -5.6448  -5.3477  -4.9498  -4.7255  -4.4385
    -4.1675  -3.9332  -3.9040  -3.5496  -2.9538  -2.8747  -2.8408  -2.7897
    -2.7560  -2.6722  -2.5776  -2.5421  -2.4971  -2.4702  -2.3879  -2.2906

          k = 0.2996-0.3460-0.6221 ( 29890 PWs)   bands (ev):

   -20.6260 -20.5719 -20.4962 -20.4750 -20.3527 -20.3388 -20.0687 -20.0459
   -19.8992 -19.8771 -19.8047 -19.7138  -8.3755  -8.3256  -8.3017  -8.2886
    -8.2587  -8.1200  -8.0127  -7.9965  -7.9211  -7.8838  -7.8001  -7.7888
    -6.0909  -6.0466  -5.7639  -5.7053  -5.2747  -5.2342  -4.5230  -4.4555
    -4.1253  -4.0965  -3.7947  -3.6128  -3.0196  -2.8902  -2.8446  -2.8324
    -2.7589  -2.6869  -2.5695  -2.5408  -2.5339  -2.4430  -2.4234  -2.2912

          k = 0.0000 0.0000-1.8663 ( 29880 PWs)   bands (ev):

   -20.5919 -20.5196 -20.4938 -20.4938 -20.4113 -20.4113 -19.9974 -19.9974
   -19.9260 -19.9260 -19.8050 -19.6958  -8.3763  -8.2821  -8.2821  -8.2788
    -8.2788  -8.0991  -8.0375  -8.0145  -7.8988  -7.8988  -7.8383  -7.8383
    -6.1040  -5.9231  -5.5997  -5.5997  -5.4719  -5.4719  -4.3059  -4.3059
    -4.2579  -4.2579  -3.7339  -3.5918  -3.0107  -2.8805  -2.8805  -2.8718
    -2.8718  -2.6523  -2.5342  -2.4889  -2.4889  -2.4807  -2.4807  -2.2483

          k = 0.2996-0.3460 0.3111 ( 29864 PWs)   bands (ev):

   -20.7195 -20.5744 -20.4734 -20.4389 -20.3405 -20.2789 -20.0980 -20.0053
   -19.9588 -19.8568 -19.8192 -19.6992  -8.3892  -8.3513  -8.3092  -8.2722
    -8.2399  -8.1709  -8.0661  -8.0153  -7.9616  -7.8256  -7.7985  -7.7686
    -6.2992  -5.9487  -5.7921  -5.5057  -5.4626  -5.0307  -4.6211  -4.3070
    -4.2044  -4.0549  -3.9290  -3.5511  -2.9350  -2.8427  -2.8210  -2.7523
    -2.7047  -2.6419  -2.6025  -2.5862  -2.5378  -2.4573  -2.3762  -2.3309

     highest occupied level (ev):    -2.2483

!    total energy              =    -413.96578790 Ry
     estimated scf accuracy    <          4.4E-10 Ry

     The total energy is the sum of the following terms:
     one-electron contribution =    -292.04337714 Ry
     hartree contribution      =     180.32827974 Ry
     xc contribution           =    -101.50650723 Ry
     ewald contribution        =    -200.74418328 Ry

     convergence has been achieved in   4 iterations

     Forces acting on atoms (cartesian axes, Ry/au):

     atom    1 type  2   force =    -0.00008344    0.00009376    0.00005766
     atom    2 type  2   force =     0.00008344   -0.00009376   -0.00005766
     atom    3 type  2   force =    -0.00003948   -0.00011914    0.00005766
     atom    4 type  2   force =     0.00003948    0.00011914   -0.00005766
     atom    5 type  2   force =     0.00012292    0.00002538    0.00005766
     atom    6 type  2   force =    -0.00012292   -0.00002538   -0.00005766
     atom    7 type  2   force =     0.00010409    0.00004980   -0.00002634
     atom    8 type  2   force =    -0.00010409   -0.00004980    0.00002634
     atom    9 type  2   force =    -0.00009517    0.00006525   -0.00002634
     atom   10 type  2   force =     0.00009517   -0.00006525    0.00002634
     atom   11 type  2   force =    -0.00000892   -0.00011505   -0.00002634
     atom   12 type  2   force =     0.00000892    0.00011505    0.00002634
     atom   13 type  1   force =     0.00004766   -0.00022046    0.00004964
     atom   14 type  1   force =    -0.00004766    0.00022046   -0.00004964
     atom   15 type  1   force =     0.00016709    0.00015151    0.00004964
     atom   16 type  1   force =    -0.00016709   -0.00015151   -0.00004964
     atom   17 type  1   force =    -0.00021475    0.00006895    0.00004964
     atom   18 type  1   force =     0.00021475   -0.00006895   -0.00004964
     atom   19 type  1   force =    -0.00002579    0.00005607   -0.00007794
     atom   20 type  1   force =     0.00002579   -0.00005607    0.00007794
     atom   21 type  1   force =    -0.00003566   -0.00005037   -0.00007794
     atom   22 type  1   force =     0.00003566    0.00005037    0.00007794
     atom   23 type  1   force =     0.00006145   -0.00000570   -0.00007794
     atom   24 type  1   force =    -0.00006145    0.00000570    0.00007794
     atom   25 type  1   force =     0.00005798    0.00002885   -0.00001266
     atom   26 type  1   force =    -0.00005798   -0.00002885    0.00001266
     atom   27 type  1   force =    -0.00005398    0.00003579   -0.00001266
     atom   28 type  1   force =     0.00005398   -0.00003579    0.00001266
     atom   29 type  1   force =    -0.00000400   -0.00006464   -0.00001266
     atom   30 type  1   force =     0.00000400    0.00006464    0.00001266
     atom   31 type  1   force =    -0.00007013    0.00004384    0.00007466
     atom   32 type  1   force =     0.00007013   -0.00004384   -0.00007466
     atom   33 type  1   force =    -0.00000290   -0.00008266    0.00007466
     atom   34 type  1   force =     0.00000290    0.00008266   -0.00007466
     atom   35 type  1   force =     0.00007303    0.00003882    0.00007466
     atom   36 type  1   force =    -0.00007303   -0.00003882   -0.00007466

     Total force =     0.000824     Total SCF correction =     0.000029


     Computing stress (Cartesian axis) and pressure

          total   stress  (Ry/bohr**3)                   (kbar)     P=       -8.82
  -0.00007391  -0.00000000  -0.00000000          -10.87       -0.00       -0.00
   0.00000000  -0.00007391  -0.00000000            0.00      -10.87       -0.00
  -0.00000000  -0.00000000  -0.00003202           -0.00       -0.00       -4.71

     Energy error            =      1.2E-06 Ry
     Gradient error          =      2.2E-04 Ry/Bohr

     number of scf cycles    =  50
     number of bfgs steps    =  49

     energy             old  =    -413.9657867456 Ry
     energy             new  =    -413.9657879031 Ry

     CASE: energy            _new < energy            _old

     new trust radius        =       0.0016652814 bohr

     The maximum number of steps has been reached.

     End of BFGS Geometry Optimization

ATOMIC_POSITIONS (crystal)
O                0.2674170008        0.0181715774        0.8557365192
O                0.7325829992        0.9818284336        0.1442634508
O                0.8557365192        0.2674170008        0.0181715774
O                0.1442634508        0.7325829992        0.9818284336
O                0.0181715774        0.8557365192        0.2674170008
O                0.9818284336        0.1442634508        0.7325829992
O                0.4837144749        0.7507066352        0.3353762544
O                0.5162855251        0.2492933648        0.6646237156
O                0.3353762544        0.4837144749        0.7507066352
O                0.6646237156        0.5162855251        0.2492933648
O                0.7507066352        0.3353762544        0.4837144749
O                0.2492933648        0.6646237156        0.5162855251
H                0.1430252442        0.0376265472        0.7942573464
H                0.8569747418        0.9623734448        0.2057426536
H                0.7942573464        0.1430252442        0.0376265472
H                0.2057426536        0.8569747418        0.9623734448
H                0.0376265472        0.7942573464        0.1430252442
H                0.9623734448        0.2057426536        0.8569747418
H                0.4226794266        0.1903506155        0.9884021595
H                0.5773205734        0.8096493995        0.0115978195
H                0.9884021595        0.4226794266        0.1903506155
H                0.0115978195        0.5773205734        0.8096493995
H                0.1903506155        0.9884021595        0.4226794266
H                0.8096493995        0.0115978195        0.5773205734
H                0.7291565101        0.4131579766        0.4105227217
H                0.2708434899        0.5868419934        0.5894773083
H                0.4105227217        0.7291565101        0.4131579766
H                0.5894773083        0.2708434899        0.5868419934
H                0.4131579766        0.4105227217        0.7291565101
H                0.5868419934        0.5894773083        0.2708434899
H                0.7453772627        0.2071081734        0.3763246685
H                0.2546227373        0.7928918116        0.6236753315
H                0.3763246685        0.7453772627        0.2071081734
H                0.6236753315        0.2546227373        0.7928918116
H                0.2071081734        0.3763246685        0.7453772627
H                0.7928918116        0.6236753315        0.2546227373



     Writing config-only to output data dir ./iceII/iceII.save/ :
     XML data file
     NEW-OLD atomic charge density approx. for the potential

     Writing all to output data dir ./iceII/iceII.save/ :
     XML data file, charge density, pseudopotentials, collected wavefunctions

     init_run     :      0.94s CPU      0.99s WALL (       1 calls)
     electrons    :    281.09s CPU    285.80s WALL (      50 calls)
     update_pot   :      1.28s CPU      1.36s WALL (      50 calls)
     forces       :      6.50s CPU      6.53s WALL (      50 calls)
     stress       :     43.84s CPU     43.89s WALL (      50 calls)

     Called by init_run:
     wfcinit      :      0.34s CPU      0.36s WALL (       1 calls)
     potinit      :      0.05s CPU      0.06s WALL (       1 calls)
     hinit0       :      0.39s CPU      0.39s WALL (       1 calls)

     Called by electrons:
     c_bands      :    238.12s CPU    240.51s WALL (     321 calls)
     sum_band     :     34.12s CPU     34.41s WALL (     321 calls)
     v_of_rho     :      6.80s CPU      6.96s WALL (     337 calls)
     newd         :      1.18s CPU      1.20s WALL (     337 calls)
     mix_rho      :      0.82s CPU      0.83s WALL (     321 calls)

     Called by c_bands:
     init_us_2    :      4.25s CPU      4.42s WALL (    2972 calls)
     cegterg      :    230.10s CPU    231.68s WALL (    1284 calls)

     Called by *egterg:
     cdiaghg      :     17.56s CPU     17.59s WALL (    4488 calls)
     h_psi        :    173.93s CPU    175.40s WALL (    4828 calls)
     s_psi        :      7.43s CPU      7.45s WALL (    4828 calls)
     g_psi        :      0.49s CPU      0.49s WALL (    3540 calls)

     Called by h_psi:
     h_psi:calbec :     12.29s CPU     12.38s WALL (    4828 calls)
     vloc_psi     :    152.56s CPU    153.91s WALL (    4828 calls)
     add_vuspsi   :      7.80s CPU      7.83s WALL (    4828 calls)

     General routines
     calbec       :     18.15s CPU     18.28s WALL (    7112 calls)
     fft          :      4.63s CPU      4.77s WALL (    4192 calls)
     ffts         :      0.37s CPU      0.37s WALL (     321 calls)
     fftw         :    159.92s CPU    161.26s WALL (  436178 calls)
     davcio       :      0.00s CPU      0.00s WALL (       4 calls)

     Parallel routines

     PWSCF        :   5m37.37s CPU   5m43.39s WALL


   This run was terminated on:  18:55:34  31Mar2026            

=------------------------------------------------------------------------------=
   JOB DONE.
=------------------------------------------------------------------------------=
