
     Program PWSCF v.7.3.1 starts on 23Mar2026 at 17:58:32 

     This program is part of the open-source Quantum ESPRESSO suite
     for quantum simulation of materials; please cite
         "P. Giannozzi et al., J. Phys.:Condens. Matter 21 395502 (2009);
         "P. Giannozzi et al., J. Phys.:Condens. Matter 29 465901 (2017);
         "P. Giannozzi et al., J. Chem. Phys. 152 154105 (2020);
          URL http://www.quantum-espresso.org", 
     in publications or presentations arising from this work. More details at
     http://www.quantum-espresso.org/quote

     Parallel version (MPI), running on   128 processors

     MPI processes distributed on     1 nodes
     242873 MiB available memory on the printing compute node when the environment starts

     Waiting for input...
     Reading input from standard input

     Current dimensions of program PWSCF are:
     Max number of different atomic species (ntypx) = 10
     Max number of k-points (npk) =  40000
     Max angular momentum in pseudopotentials (lmaxx) =  4

     K-points division:     npool     =       4
     R & G space division:  proc/nbgrp/npool/nimage =      32
     Subspace diagonalization in iterative solution of the eigenvalue problem:
     a serial algorithm will be used


     Parallelization info
     --------------------
     sticks:   dense  smooth     PW     G-vecs:    dense   smooth      PW
     Min         180     180     52                 7534     7534    1195
     Max         181     181     53                 7537     7537    1199
     Sum        5767    5767   1691               241139   241139   38335

     Using Slab Decomposition



     bravais-lattice index     =            5
     lattice parameter (alat)  =      14.7903  a.u.
     unit-cell volume          =    2090.3627 (a.u.)^3
     number of atoms/cell      =           36
     number of atomic types    =            2
     number of electrons       =        96.00
     number of Kohn-Sham states=           48
     kinetic-energy cutoff     =      90.0000  Ry
     charge density cutoff     =     360.0000  Ry
     scf convergence threshold =      1.0E-07
     mixing beta               =       0.7000
     number of iterations used =            8  plain     mixing
     Exchange-correlation=  SLA  PW   PBE  PBE
                           (   1   4   3   4   0   0   0)

     celldm(1)=  14.790281  celldm(2)=   0.000000  celldm(3)=   0.000000
     celldm(4)=  -0.392337  celldm(5)=   0.000000  celldm(6)=   0.000000

     crystal axes: (cart. coord. in units of alat)
               a(1) = (   0.834367  -0.481722   0.267909 )  
               a(2) = (   0.000000   0.963444   0.267909 )  
               a(3) = (  -0.834367  -0.481722   0.267909 )  

     reciprocal axes: (cart. coord. in units 2 pi/alat)
               b(1) = (  0.599257 -0.345981  1.244203 )  
               b(2) = ( -0.000000  0.691962  1.244203 )  
               b(3) = ( -0.599257 -0.345981  1.244203 )  


     PseudoPot. # 1 for H  read from file:
     ./H.pbe-van_ak.UPF
     MD5 check sum: 077eb6d537518a38cb46c6de387227b7
     Pseudo is Ultrasoft, Zval =  1.0
     Generated by new atomic code, or converted to UPF format
     Using radial grid of  615 points,  1 beta functions with: 
                l(1) =   0
     Q(r) pseudized with  8 coefficients,  rinner =    0.800

     PseudoPot. # 2 for O  read from file:
     ./O.pbe-van_ak.UPF
     MD5 check sum: 78c19812648e8988a0fe644b0f25305e
     Pseudo is Ultrasoft, Zval =  6.0
     Generated by new atomic code, or converted to UPF format
     Using radial grid of  737 points,  4 beta functions with: 
                l(1) =   0
                l(2) =   0
                l(3) =   1
                l(4) =   1
     Q(r) pseudized with  8 coefficients,  rinner =    0.800   0.800   0.800


     atomic species   valence    mass     pseudopotential
     H                 1.00     1.00800     H ( 1.00)
     O                 6.00    16.00000     O ( 1.00)

      6 Sym. Ops., with inversion, found



   Cartesian axes

     site n.     atom                  positions (alat units)
         1        O      tau(   1) = (  -0.4910119  -0.5205722   0.3052394  )
         2        O      tau(   2) = (   0.4910119   0.5205722   0.4984877  )
         3        O      tau(   3) = (   0.6963347  -0.1649427   0.3052394  )
         4        O      tau(   4) = (  -0.6963347   0.1649427   0.4984877  )
         5        O      tau(   5) = (  -0.2053228   0.6855149   0.3052394  )
         6        O      tau(   6) = (   0.2053228  -0.6855149   0.4984877  )
         7        O      tau(   7) = (   0.1229870   0.3303028   0.4196306  )
         8        O      tau(   8) = (  -0.1229870  -0.3303028   0.3840965  )
         9        O      tau(   9) = (  -0.3475441  -0.0586415   0.4196306  )
        10        O      tau(  10) = (   0.3475441   0.0586415   0.3840965  )
        11        O      tau(  11) = (   0.2245571  -0.2716613   0.4196306  )
        12        O      tau(  12) = (  -0.2245571   0.2716612   0.3840965  )
        13        H      tau(  13) = (  -0.5446961  -0.4126715   0.2597134  )
        14        H      tau(  14) = (   0.5446961   0.4126715   0.5440137  )
        15        H      tau(  15) = (   0.6297321  -0.2653849   0.2597134  )
        16        H      tau(  16) = (  -0.6297321   0.2653849   0.5440137  )
        17        H      tau(  17) = (  -0.0850360   0.6780564   0.2597134  )
        18        H      tau(  18) = (   0.0850360  -0.6780564   0.5440137  )
        19        H      tau(  19) = (  -0.4726389  -0.4926041   0.4288765  )
        20        H      tau(  20) = (   0.4726389   0.4926042   0.3748506  )
        21        H      tau(  21) = (   0.6629272  -0.1630152   0.4288765  )
        22        H      tau(  22) = (  -0.6629272   0.1630152   0.3748506  )
        23        H      tau(  23) = (  -0.1902883   0.6556194   0.4288765  )
        24        H      tau(  24) = (   0.1902883  -0.6556194   0.3748506  )
        25        H      tau(  25) = (   0.2676988  -0.1507235   0.4151121  )
        26        H      tau(  26) = (  -0.2676988   0.1507234   0.3886151  )
        27        H      tau(  27) = (  -0.0033191   0.3071957   0.4151121  )
        28        H      tau(  28) = (   0.0033191  -0.3071957   0.3886151  )
        29        H      tau(  29) = (  -0.2643797  -0.1564722   0.4151121  )
        30        H      tau(  30) = (   0.2643797   0.1564723   0.3886151  )
        31        H      tau(  31) = (   0.3102941  -0.3416444   0.3555952  )
        32        H      tau(  32) = (  -0.3102941   0.3416444   0.4481319  )
        33        H      tau(  33) = (   0.1407257   0.4395448   0.3555952  )
        34        H      tau(  34) = (  -0.1407257  -0.4395448   0.4481319  )
        35        H      tau(  35) = (  -0.4510198  -0.0979003   0.3555952  )
        36        H      tau(  36) = (   0.4510198   0.0979003   0.4481319  )

     number of k points=    14
                       cart. coord. in units 2pi/alat
        k(    1) = (   0.0000000   0.0000000   0.0000000), wk =   0.0312500
        k(    2) = (  -0.1498141  -0.0864952   0.3110508), wk =   0.1875000
        k(    3) = (   0.2996283   0.1729905  -0.6221017), wk =   0.0937500
        k(    4) = (  -0.1498141   0.0864952   0.6221017), wk =   0.1875000
        k(    5) = (   0.2996283   0.3459809  -0.3110508), wk =   0.1875000
        k(    6) = (   0.1498141   0.2594857   0.0000000), wk =   0.1875000
        k(    7) = (   0.2996283  -0.1729905  -1.2442034), wk =   0.0937500
        k(    8) = (   0.0000000   0.0000000   0.9331525), wk =   0.0625000
        k(    9) = (   0.4494424   0.2594857   0.0000000), wk =   0.1875000
        k(   10) = (   0.2996283   0.1729905   0.3110508), wk =   0.1875000
        k(   11) = (   0.4494424  -0.2594857  -0.9331525), wk =   0.1875000
        k(   12) = (   0.2996283  -0.3459809  -0.6221017), wk =   0.1875000
        k(   13) = (   0.0000000   0.0000000  -1.8663050), wk =   0.0312500
        k(   14) = (   0.2996283  -0.3459809   0.3110508), wk =   0.1875000

     Dense  grid:   241139 G-vectors     FFT dimensions: (  90,  90,  90)

     Estimated max dynamical RAM per process >      15.72 MB

     Estimated total dynamical RAM >       1.79 GB

     Initial potential from superposition of free atoms

     starting charge      95.9998, renormalised to      96.0000
     Starting wfcs are   72 randomized atomic wfcs

     total cpu time spent up to now is        1.2 secs

     per-process dynamical memory:    19.7 Mb

     Self-consistent Calculation

     iteration #  1     ecut=    90.00 Ry     beta= 0.70
     Davidson diagonalization with overlap
     ethr =  1.00E-02,  avg # of iterations =  2.0

     total cpu time spent up to now is        2.0 secs

     total energy              =    -412.33769883 Ry
     estimated scf accuracy    <       3.89785214 Ry

     iteration #  2     ecut=    90.00 Ry     beta= 0.70
     Davidson diagonalization with overlap
     ethr =  4.06E-03,  avg # of iterations =  3.0

     total cpu time spent up to now is        3.1 secs

     total energy              =    -413.56846166 Ry
     estimated scf accuracy    <       2.42106393 Ry

     iteration #  3     ecut=    90.00 Ry     beta= 0.70
     Davidson diagonalization with overlap
     ethr =  2.52E-03,  avg # of iterations =  2.0

     total cpu time spent up to now is        4.0 secs

     total energy              =    -413.87952841 Ry
     estimated scf accuracy    <       0.09959145 Ry

     iteration #  4     ecut=    90.00 Ry     beta= 0.70
     Davidson diagonalization with overlap
     ethr =  1.04E-04,  avg # of iterations =  4.0

     total cpu time spent up to now is        5.2 secs

     total energy              =    -413.95702244 Ry
     estimated scf accuracy    <       0.12292827 Ry

     iteration #  5     ecut=    90.00 Ry     beta= 0.70
     Davidson diagonalization with overlap
     ethr =  1.04E-04,  avg # of iterations =  2.0

     total cpu time spent up to now is        5.9 secs

     total energy              =    -413.96132377 Ry
     estimated scf accuracy    <       0.01798303 Ry

     iteration #  6     ecut=    90.00 Ry     beta= 0.70
     Davidson diagonalization with overlap
     ethr =  1.87E-05,  avg # of iterations =  2.0

     total cpu time spent up to now is        6.7 secs

     total energy              =    -413.96111728 Ry
     estimated scf accuracy    <       0.00432046 Ry

     iteration #  7     ecut=    90.00 Ry     beta= 0.70
     Davidson diagonalization with overlap
     ethr =  4.50E-06,  avg # of iterations =  3.0

     total cpu time spent up to now is        7.6 secs

     total energy              =    -413.96371610 Ry
     estimated scf accuracy    <       0.00112593 Ry

     iteration #  8     ecut=    90.00 Ry     beta= 0.70
     Davidson diagonalization with overlap
     ethr =  1.17E-06,  avg # of iterations =  1.8

     total cpu time spent up to now is        8.3 secs

     total energy              =    -413.96316141 Ry
     estimated scf accuracy    <       0.00150220 Ry

     iteration #  9     ecut=    90.00 Ry     beta= 0.70
     Davidson diagonalization with overlap
     ethr =  1.17E-06,  avg # of iterations =  2.0

     total cpu time spent up to now is        9.0 secs

     total energy              =    -413.96318881 Ry
     estimated scf accuracy    <       0.00023546 Ry

     iteration # 10     ecut=    90.00 Ry     beta= 0.70
     Davidson diagonalization with overlap
     ethr =  2.45E-07,  avg # of iterations =  2.0

     total cpu time spent up to now is        9.9 secs

     total energy              =    -413.96324701 Ry
     estimated scf accuracy    <       0.00000707 Ry

     iteration # 11     ecut=    90.00 Ry     beta= 0.70
     Davidson diagonalization with overlap
     ethr =  7.37E-09,  avg # of iterations =  5.0

     total cpu time spent up to now is       11.0 secs

     total energy              =    -413.96325390 Ry
     estimated scf accuracy    <       0.00000329 Ry

     iteration # 12     ecut=    90.00 Ry     beta= 0.70
     Davidson diagonalization with overlap
     ethr =  3.43E-09,  avg # of iterations =  2.0

     total cpu time spent up to now is       11.8 secs

     total energy              =    -413.96325437 Ry
     estimated scf accuracy    <       0.00000010 Ry

     iteration # 13     ecut=    90.00 Ry     beta= 0.70
     Davidson diagonalization with overlap
     ethr =  1.05E-10,  avg # of iterations =  6.0

     total cpu time spent up to now is       13.3 secs

     total energy              =    -413.96325452 Ry
     estimated scf accuracy    <       0.00000071 Ry

     iteration # 14     ecut=    90.00 Ry     beta= 0.70
     Davidson diagonalization with overlap
     ethr =  1.05E-10,  avg # of iterations =  2.0

     total cpu time spent up to now is       14.2 secs

     total energy              =    -413.96325441 Ry
     estimated scf accuracy    <       0.00000027 Ry

     iteration # 15     ecut=    90.00 Ry     beta= 0.70
     Davidson diagonalization with overlap
     ethr =  1.05E-10,  avg # of iterations =  3.0

     total cpu time spent up to now is       15.2 secs

     End of self-consistent calculation

          k = 0.0000 0.0000 0.0000 ( 30161 PWs)   bands (ev):

   -20.8481 -20.4134 -20.4134 -20.2009 -20.2009 -20.1917 -20.1504 -20.1504
   -20.1231 -19.8505 -19.8505 -19.5458  -8.4289  -8.3108  -8.2888  -8.2888
    -8.2178  -8.2178  -7.9115  -7.9115  -7.8962  -7.8962  -7.8898  -7.8409
    -6.7719  -5.6822  -5.6822  -5.1607  -5.1607  -4.9034  -4.9034  -4.8545
    -4.6190  -3.9931  -3.9931  -3.2653  -2.8804  -2.8804  -2.7940  -2.6940
    -2.6940  -2.6347  -2.5678  -2.5547  -2.5547  -2.4806  -2.4407  -2.4407

          k =-0.1498-0.0865 0.3111 ( 30160 PWs)   bands (ev):

   -20.7792 -20.4460 -20.4052 -20.3355 -20.3019 -20.2372 -20.1098 -20.0544
   -19.9989 -19.8586 -19.8192 -19.6005  -8.3953  -8.3334  -8.3022  -8.2814
    -8.2148  -8.1728  -7.9754  -7.9388  -7.9090  -7.8540  -7.8164  -7.7968
    -6.5900  -5.8497  -5.7094  -5.4306  -5.2578  -5.0072  -4.7304  -4.6587
    -4.4579  -3.9973  -3.9273  -3.4119  -2.9578  -2.9020  -2.8140  -2.7587
    -2.7401  -2.6792  -2.6174  -2.5502  -2.5211  -2.4886  -2.4401  -2.4278

          k = 0.2996 0.1730-0.6221 ( 30140 PWs)   bands (ev):

   -20.6163 -20.5820 -20.4297 -20.3941 -20.3238 -20.2919 -20.0654 -20.0217
   -19.9098 -19.8426 -19.7658 -19.7104  -8.3514  -8.3450  -8.3016  -8.2894
    -8.2226  -8.1513  -7.9759  -7.9541  -7.9166  -7.8652  -7.7576  -7.7430
    -6.2279  -6.1247  -5.7411  -5.7010  -5.2297  -5.1915  -4.5934  -4.5478
    -4.1121  -4.0761  -3.8952  -3.6570  -3.0262  -2.9204  -2.8280  -2.8250
    -2.7646  -2.6860  -2.6602  -2.5852  -2.5559  -2.4759  -2.4103  -2.4063

          k =-0.1498 0.0865 0.6221 ( 30140 PWs)   bands (ev):

   -20.6443 -20.4994 -20.4903 -20.3787 -20.3510 -20.2865 -20.0606 -19.9824
   -19.9384 -19.8258 -19.8033 -19.6928  -8.3535  -8.3292  -8.3202  -8.2947
    -8.2107  -8.1460  -7.9732  -7.9587  -7.9503  -7.8104  -7.7778  -7.7494
    -6.2693  -5.9855  -5.9423  -5.5093  -5.3674  -5.1709  -4.6230  -4.3787
    -4.2992  -3.9826  -3.8999  -3.6758  -3.0151  -2.9416  -2.8313  -2.7931
    -2.7375  -2.7223  -2.6718  -2.5660  -2.5576  -2.4842  -2.4287  -2.3873

          k = 0.2996 0.3460-0.3111 ( 30149 PWs)   bands (ev):

   -20.6844 -20.5288 -20.4647 -20.3932 -20.3172 -20.2493 -20.0794 -19.9861
   -19.8967 -19.8837 -19.7812 -19.6811  -8.3653  -8.3554  -8.2817  -8.2734
    -8.2180  -8.1599  -8.0422  -8.0159  -7.9543  -7.8097  -7.7977  -7.7502
    -6.3130  -5.9745  -5.7876  -5.5483  -5.5137  -4.9815  -4.5769  -4.4300
    -4.3180  -4.0224  -3.9022  -3.6121  -2.9534  -2.8986  -2.8415  -2.7765
    -2.7336  -2.6660  -2.6347  -2.6126  -2.5369  -2.5247  -2.4089  -2.3597

          k = 0.1498 0.2595 0.0000 ( 30103 PWs)   bands (ev):

   -20.7960 -20.4821 -20.4298 -20.3157 -20.2624 -20.1932 -20.1275 -20.0625
   -19.9952 -19.8591 -19.8229 -19.5923  -8.4073  -8.3322  -8.2949  -8.2708
    -8.2046  -8.1962  -8.0374  -7.9888  -7.9182  -7.8570  -7.8310  -7.8017
    -6.5961  -5.7435  -5.6883  -5.4551  -5.4130  -4.8444  -4.7190  -4.5799
    -4.4987  -4.0219  -3.9838  -3.3635  -2.8806  -2.8610  -2.8295  -2.7414
    -2.6995  -2.6639  -2.6008  -2.5830  -2.5436  -2.5012  -2.4041  -2.3902

          k = 0.2996-0.1730-1.2442 ( 30130 PWs)   bands (ev):

   -20.6662 -20.6425 -20.4416 -20.3672 -20.2575 -20.2248 -20.0613 -20.0594
   -19.9058 -19.8877 -19.7311 -19.6931  -8.3755  -8.3496  -8.2872  -8.2699
    -8.1811  -8.1792  -8.1151  -8.0453  -7.9391  -7.8493  -7.8163  -7.7717
    -6.1715  -6.1533  -5.7271  -5.6556  -5.3227  -4.9700  -4.5437  -4.4770
    -4.2833  -4.1336  -3.7994  -3.6150  -2.8841  -2.8517  -2.8327  -2.7742
    -2.7062  -2.6610  -2.6495  -2.5815  -2.5769  -2.5061  -2.3715  -2.3577

          k = 0.0000 0.0000 0.9332 ( 30144 PWs)   bands (ev):

   -20.5731 -20.5731 -20.5374 -20.4570 -20.2794 -20.2794 -20.0018 -20.0018
   -19.8805 -19.7958 -19.7958 -19.7708  -8.3534  -8.3534  -8.3013  -8.2506
    -8.2060  -8.2060  -8.0750  -7.9981  -7.9981  -7.7666  -7.7666  -7.7350
    -6.0583  -6.0583  -5.9826  -5.7154  -5.2696  -5.2696  -4.3410  -4.3410
    -4.1993  -3.9701  -3.9701  -3.8474  -2.9071  -2.9071  -2.8133  -2.7817
    -2.7075  -2.7075  -2.6468  -2.5918  -2.5918  -2.4704  -2.4704  -2.3347

          k = 0.4494 0.2595 0.0000 ( 30117 PWs)   bands (ev):

   -20.6995 -20.5416 -20.5360 -20.3669 -20.2269 -20.1965 -20.1022 -20.0665
   -19.9129 -19.8298 -19.7867 -19.6728  -8.3745  -8.3397  -8.3135  -8.2394
    -8.2143  -8.1534  -8.1315  -8.0186  -7.9735  -7.8299  -7.8000  -7.7900
    -6.2974  -5.8808  -5.8440  -5.7163  -5.2837  -4.9628  -4.6121  -4.5038
    -4.1953  -4.0403  -3.9395  -3.5763  -2.8705  -2.8538  -2.8412  -2.7690
    -2.7304  -2.6738  -2.6316  -2.6070  -2.5371  -2.4830  -2.4180  -2.3384

          k = 0.2996 0.1730 0.3111 ( 30141 PWs)   bands (ev):

   -20.7307 -20.4895 -20.4163 -20.3938 -20.3035 -20.2485 -20.0795 -20.0441
   -19.9549 -19.8582 -19.7912 -19.6356  -8.3788  -8.3395  -8.3069  -8.2484
    -8.2262  -8.1396  -8.0440  -7.9388  -7.9113  -7.8926  -7.8341  -7.7770
    -6.4340  -5.8462  -5.7845  -5.4740  -5.4288  -4.9906  -4.6510  -4.5052
    -4.4592  -3.9734  -3.9156  -3.4776  -2.9787  -2.8881  -2.8459  -2.8109
    -2.7500  -2.6745  -2.6131  -2.5926  -2.5221  -2.4927  -2.4189  -2.3726

          k = 0.4494-0.2595-0.9332 ( 30129 PWs)   bands (ev):

   -20.6077 -20.6001 -20.4700 -20.4249 -20.2987 -20.2199 -20.1125 -20.0189
   -19.8833 -19.8411 -19.7863 -19.6816  -8.3585  -8.3366  -8.3112  -8.2395
    -8.2096  -8.1093  -8.0929  -7.9948  -7.9286  -7.8920  -7.8224  -7.7855
    -6.1521  -5.9982  -5.8320  -5.6552  -5.3812  -4.9742  -4.7410  -4.4543
    -4.1967  -3.9598  -3.9359  -3.5856  -2.9811  -2.9036  -2.8703  -2.8169
    -2.7856  -2.6988  -2.6075  -2.5735  -2.5262  -2.4991  -2.4174  -2.3307

          k = 0.2996-0.3460-0.6221 ( 30150 PWs)   bands (ev):

   -20.5841 -20.5457 -20.4592 -20.4480 -20.3235 -20.3116 -20.0447 -20.0237
   -19.8778 -19.8563 -19.7847 -19.6936  -8.3626  -8.3093  -8.2875  -8.2755
    -8.2478  -8.1056  -8.0012  -7.9819  -7.9098  -7.8741  -7.7917  -7.7813
    -6.1025  -6.0711  -5.7814  -5.7261  -5.2851  -5.2468  -4.5514  -4.4846
    -4.1532  -4.1236  -3.8284  -3.6426  -3.0466  -2.9196  -2.8756  -2.8599
    -2.7875  -2.7122  -2.5987  -2.5770  -2.5633  -2.4718  -2.4521  -2.3321

          k = 0.0000 0.0000-1.8663 ( 30168 PWs)   bands (ev):

   -20.5470 -20.5009 -20.4559 -20.4559 -20.3874 -20.3874 -19.9726 -19.9726
   -19.9058 -19.9058 -19.7854 -19.6755  -8.3648  -8.2684  -8.2684  -8.2674
    -8.2674  -8.0755  -8.0265  -8.0039  -7.8863  -7.8863  -7.8324  -7.8324
    -6.1056  -5.9499  -5.6084  -5.6084  -5.5033  -5.5033  -4.3274  -4.3274
    -4.2856  -4.2856  -3.7709  -3.6210  -3.0386  -2.9113  -2.9113  -2.8983
    -2.8983  -2.6740  -2.5738  -2.5177  -2.5177  -2.5099  -2.5099  -2.2901

          k = 0.2996-0.3460 0.3111 ( 30149 PWs)   bands (ev):

   -20.6838 -20.5370 -20.4412 -20.4117 -20.3151 -20.2499 -20.0745 -19.9803
   -19.9382 -19.8350 -19.7991 -19.6799  -8.3742  -8.3378  -8.2962  -8.2580
    -8.2272  -8.1618  -8.0556  -8.0035  -7.9508  -7.8121  -7.7894  -7.7569
    -6.3164  -5.9590  -5.8274  -5.5181  -5.4779  -5.0384  -4.6489  -4.3357
    -4.2316  -4.0831  -3.9567  -3.5866  -2.9626  -2.8712  -2.8498  -2.7771
    -2.7359  -2.6712  -2.6355  -2.6175  -2.5643  -2.4868  -2.4133  -2.3620

     highest occupied level (ev):    -2.2901

!    total energy              =    -413.96325448 Ry
     estimated scf accuracy    <          4.5E-09 Ry

     The total energy is the sum of the following terms:
     one-electron contribution =    -292.64738713 Ry
     hartree contribution      =     180.52243433 Ry
     xc contribution           =    -101.35986754 Ry
     ewald contribution        =    -200.47843413 Ry

     convergence has been achieved in  15 iterations

     Forces acting on atoms (cartesian axes, Ry/au):

     atom    1 type  2   force =    -0.00312275    0.00909382    0.00613543
     atom    2 type  2   force =     0.00312275   -0.00909382   -0.00613543
     atom    3 type  2   force =    -0.00631410   -0.00725129    0.00613543
     atom    4 type  2   force =     0.00631410    0.00725129   -0.00613543
     atom    5 type  2   force =     0.00943685   -0.00184252    0.00613543
     atom    6 type  2   force =    -0.00943685    0.00184252   -0.00613543
     atom    7 type  2   force =    -0.00695759    0.00589614   -0.00400976
     atom    8 type  2   force =     0.00695759   -0.00589614    0.00400976
     atom    9 type  2   force =    -0.00162741   -0.00897352   -0.00400976
     atom   10 type  2   force =     0.00162741    0.00897352    0.00400976
     atom   11 type  2   force =     0.00858500    0.00307738   -0.00400976
     atom   12 type  2   force =    -0.00858500   -0.00307738    0.00400976
     atom   13 type  1   force =     0.00403549   -0.00766258    0.00464523
     atom   14 type  1   force =    -0.00403549    0.00766258   -0.00464523
     atom   15 type  1   force =     0.00461824    0.00732612    0.00464523
     atom   16 type  1   force =    -0.00461824   -0.00732612   -0.00464523
     atom   17 type  1   force =    -0.00865373    0.00033645    0.00464523
     atom   18 type  1   force =     0.00865373   -0.00033645   -0.00464523
     atom   19 type  1   force =    -0.00109028   -0.00180078   -0.00936628
     atom   20 type  1   force =     0.00109028    0.00180078    0.00936628
     atom   21 type  1   force =     0.00210466   -0.00004382   -0.00936628
     atom   22 type  1   force =    -0.00210466    0.00004382    0.00936628
     atom   23 type  1   force =    -0.00101438    0.00184460   -0.00936628
     atom   24 type  1   force =     0.00101438   -0.00184460    0.00936628
     atom   25 type  1   force =    -0.00250344   -0.00868932   -0.00007874
     atom   26 type  1   force =     0.00250344    0.00868932    0.00007874
     atom   27 type  1   force =     0.00877689    0.00217662   -0.00007874
     atom   28 type  1   force =    -0.00877689   -0.00217662    0.00007874
     atom   29 type  1   force =    -0.00627346    0.00651270   -0.00007874
     atom   30 type  1   force =     0.00627346   -0.00651270    0.00007874
     atom   31 type  1   force =    -0.00697437    0.00621539    0.00505325
     atom   32 type  1   force =     0.00697437   -0.00621539   -0.00505325
     atom   33 type  1   force =    -0.00189550   -0.00914768    0.00505325
     atom   34 type  1   force =     0.00189550    0.00914768   -0.00505325
     atom   35 type  1   force =     0.00886987    0.00293229    0.00505325
     atom   36 type  1   force =    -0.00886987   -0.00293229   -0.00505325

     Total force =     0.060630     Total SCF correction =     0.000042


     Computing stress (Cartesian axis) and pressure

          total   stress  (Ry/bohr**3)                   (kbar)     P=      -21.83
  -0.00015983  -0.00000000  -0.00000000          -23.51       -0.00       -0.00
   0.00000000  -0.00015983  -0.00000000            0.00      -23.51       -0.00
  -0.00000000  -0.00000000  -0.00012548           -0.00       -0.00      -18.46


     Writing all to output data dir ./iceII/iceII.save/ :
     XML data file, charge density, pseudopotentials, collected wavefunctions

     init_run     :      0.95s CPU      1.00s WALL (       1 calls)
     electrons    :     13.81s CPU     14.07s WALL (       1 calls)
     forces       :      0.14s CPU      0.15s WALL (       1 calls)
     stress       :      0.88s CPU      0.90s WALL (       1 calls)

     Called by init_run:
     wfcinit      :      0.34s CPU      0.36s WALL (       1 calls)
     potinit      :      0.04s CPU      0.05s WALL (       1 calls)
     hinit0       :      0.39s CPU      0.41s WALL (       1 calls)

     Called by electrons:
     c_bands      :     11.62s CPU     11.74s WALL (      15 calls)
     sum_band     :      1.60s CPU      1.62s WALL (      15 calls)
     v_of_rho     :      0.34s CPU      0.40s WALL (      16 calls)
     newd         :      0.14s CPU      0.14s WALL (      16 calls)
     mix_rho      :      0.07s CPU      0.07s WALL (      15 calls)

     Called by c_bands:
     init_us_2    :      0.19s CPU      0.21s WALL (     132 calls)
     cegterg      :     11.18s CPU     11.26s WALL (      60 calls)

     Called by *egterg:
     cdiaghg      :      0.86s CPU      0.87s WALL (     227 calls)
     h_psi        :      8.64s CPU      8.72s WALL (     231 calls)
     s_psi        :      0.38s CPU      0.38s WALL (     231 calls)
     g_psi        :      0.02s CPU      0.02s WALL (     167 calls)

     Called by h_psi:
     h_psi:calbec :      0.63s CPU      0.63s WALL (     231 calls)
     vloc_psi     :      7.57s CPU      7.64s WALL (     231 calls)
     add_vuspsi   :      0.39s CPU      0.39s WALL (     231 calls)

     General routines
     calbec       :      0.84s CPU      0.84s WALL (     311 calls)
     fft          :      0.59s CPU      0.65s WALL (     184 calls)
     ffts         :      0.02s CPU      0.02s WALL (      15 calls)
     fftw         :      7.87s CPU      7.94s WALL (   21450 calls)

     Parallel routines

     PWSCF        :     16.11s CPU     16.75s WALL


   This run was terminated on:  17:58:48  23Mar2026            

=------------------------------------------------------------------------------=
   JOB DONE.
=------------------------------------------------------------------------------=
