
     Program PWSCF v.7.3.1 starts on 31Mar2026 at 19: 1:40 

     This program is part of the open-source Quantum ESPRESSO suite
     for quantum simulation of materials; please cite
         "P. Giannozzi et al., J. Phys.:Condens. Matter 21 395502 (2009);
         "P. Giannozzi et al., J. Phys.:Condens. Matter 29 465901 (2017);
         "P. Giannozzi et al., J. Chem. Phys. 152 154105 (2020);
          URL http://www.quantum-espresso.org", 
     in publications or presentations arising from this work. More details at
     http://www.quantum-espresso.org/quote

     Parallel version (MPI), running on   128 processors

     MPI processes distributed on     1 nodes
     498790 MiB available memory on the printing compute node when the environment starts

     Waiting for input...
     Reading input from standard input

     Current dimensions of program PWSCF are:
     Max number of different atomic species (ntypx) = 10
     Max number of k-points (npk) =  40000
     Max angular momentum in pseudopotentials (lmaxx) =  4

     File ./iceII/iceII.update deleted, as requested

     File ./iceII/iceII.bfgs deleted, as requested

     K-points division:     npool     =       4
     R & G space division:  proc/nbgrp/npool/nimage =      32
     Subspace diagonalization in iterative solution of the eigenvalue problem:
     a serial algorithm will be used


     Parallelization info
     --------------------
     sticks:   dense  smooth     PW     G-vecs:    dense   smooth      PW
     Min         180     180     53                 7599     7599    1205
     Max         181     181     54                 7604     7604    1207
     Sum        5783    5783   1703               243265   243265   38593

     Using Slab Decomposition



     bravais-lattice index     =            5
     lattice parameter (alat)  =      14.8344  a.u.
     unit-cell volume          =    2109.1196 (a.u.)^3
     number of atoms/cell      =           36
     number of atomic types    =            2
     number of electrons       =        96.00
     number of Kohn-Sham states=           48
     kinetic-energy cutoff     =      90.0000  Ry
     charge density cutoff     =     360.0000  Ry
     scf convergence threshold =      1.0E-07
     mixing beta               =       0.7000
     number of iterations used =            8  plain     mixing
     energy convergence thresh.=      1.0E-04
     force convergence thresh. =      1.0E-04
     Exchange-correlation=  SLA  PW   PBE  PBE
                           (   1   4   3   4   0   0   0)
     nstep                     =           50


     celldm(1)=  14.834387  celldm(2)=   0.000000  celldm(3)=   0.000000
     celldm(4)=  -0.392337  celldm(5)=   0.000000  celldm(6)=   0.000000

     crystal axes: (cart. coord. in units of alat)
               a(1) = (   0.834367  -0.481722   0.267909 )  
               a(2) = (   0.000000   0.963444   0.267909 )  
               a(3) = (  -0.834367  -0.481722   0.267909 )  

     reciprocal axes: (cart. coord. in units 2 pi/alat)
               b(1) = (  0.599257 -0.345981  1.244203 )  
               b(2) = (  0.000000  0.691962  1.244203 )  
               b(3) = ( -0.599257 -0.345981  1.244203 )  


     PseudoPot. # 1 for H  read from file:
     ./H.pbe-van_ak.UPF
     MD5 check sum: 077eb6d537518a38cb46c6de387227b7
     Pseudo is Ultrasoft, Zval =  1.0
     Generated by new atomic code, or converted to UPF format
     Using radial grid of  615 points,  1 beta functions with: 
                l(1) =   0
     Q(r) pseudized with  8 coefficients,  rinner =    0.800

     PseudoPot. # 2 for O  read from file:
     ./O.pbe-van_ak.UPF
     MD5 check sum: 78c19812648e8988a0fe644b0f25305e
     Pseudo is Ultrasoft, Zval =  6.0
     Generated by new atomic code, or converted to UPF format
     Using radial grid of  737 points,  4 beta functions with: 
                l(1) =   0
                l(2) =   0
                l(3) =   1
                l(4) =   1
     Q(r) pseudized with  8 coefficients,  rinner =    0.800   0.800   0.800


     atomic species   valence    mass     pseudopotential
     H                 1.00     1.00800     H ( 1.00)
     O                 6.00    16.00000     O ( 1.00)

      6 Sym. Ops., with inversion, found



   Cartesian axes

     site n.     atom                  positions (alat units)
         1        O      tau(   1) = (  -0.4847673  -0.5197781   0.3083633  )
         2        O      tau(   2) = (   0.4847673   0.5197782   0.4953638  )
         3        O      tau(   3) = (   0.6925247  -0.1599317   0.3083633  )
         4        O      tau(   4) = (  -0.6925248   0.1599317   0.4953638  )
         5        O      tau(   5) = (  -0.2077574   0.6797099   0.3083633  )
         6        O      tau(   6) = (   0.2077574  -0.6797099   0.4953638  )
         7        O      tau(   7) = (   0.1218176   0.3323883   0.4179381  )
         8        O      tau(   8) = (  -0.1218176  -0.3323883   0.3857890  )
         9        O      tau(   9) = (  -0.3487655  -0.0606970   0.4179381  )
        10        O      tau(  10) = (   0.3487655   0.0606970   0.3857890  )
        11        O      tau(  11) = (   0.2269479  -0.2716913   0.4179381  )
        12        O      tau(  12) = (  -0.2269479   0.2716912   0.3857890  )
        13        H      tau(  13) = (  -0.5381668  -0.4032014   0.2796970  )
        14        H      tau(  14) = (   0.5381668   0.4032014   0.5240301  )
        15        H      tau(  15) = (   0.6182661  -0.2644654   0.2796970  )
        16        H      tau(  16) = (  -0.6182661   0.2644654   0.5240301  )
        17        H      tau(  17) = (  -0.0800993   0.6676668   0.2796970  )
        18        H      tau(  18) = (   0.0800993  -0.6676668   0.5240301  )
        19        H      tau(  19) = (  -0.4872704  -0.4817221   0.4326731  )
        20        H      tau(  20) = (   0.4872704   0.4817221   0.3710540  )
        21        H      tau(  21) = (   0.6608188  -0.1811275   0.4326731  )
        22        H      tau(  22) = (  -0.6608188   0.1811275   0.3710540  )
        23        H      tau(  23) = (  -0.1735484   0.6628496   0.4326731  )
        24        H      tau(  24) = (   0.1735484  -0.6628496   0.3710540  )
        25        H      tau(  25) = (   0.2703349  -0.1502973   0.4058822  )
        26        H      tau(  26) = (  -0.2703350   0.1502973   0.3978449  )
        27        H      tau(  27) = (  -0.0050062   0.3092656   0.4058822  )
        28        H      tau(  28) = (   0.0050062  -0.3092656   0.3978449  )
        29        H      tau(  29) = (  -0.2653287  -0.1589683   0.4058822  )
        30        H      tau(  30) = (   0.2653287   0.1589683   0.3978449  )
        31        H      tau(  31) = (   0.3178939  -0.3347969   0.3493534  )
        32        H      tau(  32) = (  -0.3178939   0.3347969   0.4543737  )
        33        H      tau(  33) = (   0.1309957   0.4427026   0.3493534  )
        34        H      tau(  34) = (  -0.1309956  -0.4427026   0.4543737  )
        35        H      tau(  35) = (  -0.4488895  -0.1079057   0.3493534  )
        36        H      tau(  36) = (   0.4488895   0.1079057   0.4543737  )

     number of k points=    14
                       cart. coord. in units 2pi/alat
        k(    1) = (   0.0000000   0.0000000   0.0000000), wk =   0.0312500
        k(    2) = (  -0.1498141  -0.0864952   0.3110508), wk =   0.1875000
        k(    3) = (   0.2996283   0.1729905  -0.6221017), wk =   0.0937500
        k(    4) = (  -0.1498141   0.0864952   0.6221017), wk =   0.1875000
        k(    5) = (   0.2996283   0.3459809  -0.3110508), wk =   0.1875000
        k(    6) = (   0.1498141   0.2594857   0.0000000), wk =   0.1875000
        k(    7) = (   0.2996283  -0.1729905  -1.2442034), wk =   0.0937500
        k(    8) = (   0.0000000   0.0000000   0.9331525), wk =   0.0625000
        k(    9) = (   0.4494424   0.2594857   0.0000000), wk =   0.1875000
        k(   10) = (   0.2996283   0.1729905   0.3110508), wk =   0.1875000
        k(   11) = (   0.4494424  -0.2594857  -0.9331525), wk =   0.1875000
        k(   12) = (   0.2996283  -0.3459809  -0.6221017), wk =   0.1875000
        k(   13) = (   0.0000000   0.0000000  -1.8663050), wk =   0.0312500
        k(   14) = (   0.2996283  -0.3459809   0.3110508), wk =   0.1875000

     Dense  grid:   243265 G-vectors     FFT dimensions: (  90,  90,  90)

     Estimated max dynamical RAM per process >      15.84 MB

     Estimated total dynamical RAM >       1.81 GB

     Initial potential from superposition of free atoms

     starting charge      95.9998, renormalised to      96.0000
     Starting wfcs are   72 randomized atomic wfcs

     total cpu time spent up to now is        1.2 secs

     per-process dynamical memory:    20.0 Mb

     Self-consistent Calculation

     iteration #  1     ecut=    90.00 Ry     beta= 0.70
     Davidson diagonalization with overlap
     ethr =  1.00E-02,  avg # of iterations =  2.0

     total cpu time spent up to now is        2.1 secs

     total energy              =    -412.27731438 Ry
     estimated scf accuracy    <       3.70605804 Ry

     iteration #  2     ecut=    90.00 Ry     beta= 0.70
     Davidson diagonalization with overlap
     ethr =  3.86E-03,  avg # of iterations =  3.0

     total cpu time spent up to now is        3.2 secs

     total energy              =    -413.44614034 Ry
     estimated scf accuracy    <       2.42787321 Ry

     iteration #  3     ecut=    90.00 Ry     beta= 0.70
     Davidson diagonalization with overlap
     ethr =  2.53E-03,  avg # of iterations =  2.0

     negative rho (up, down):  3.395E-08 0.000E+00

     total cpu time spent up to now is        4.0 secs

     total energy              =    -413.75328863 Ry
     estimated scf accuracy    <       0.10590937 Ry

     iteration #  4     ecut=    90.00 Ry     beta= 0.70
     Davidson diagonalization with overlap
     ethr =  1.10E-04,  avg # of iterations =  4.0

     negative rho (up, down):  1.142E-07 0.000E+00

     total cpu time spent up to now is        5.2 secs

     total energy              =    -413.83621175 Ry
     estimated scf accuracy    <       0.12389649 Ry

     iteration #  5     ecut=    90.00 Ry     beta= 0.70
     Davidson diagonalization with overlap
     ethr =  1.10E-04,  avg # of iterations =  2.0

     negative rho (up, down):  1.383E-07 0.000E+00

     total cpu time spent up to now is        5.9 secs

     total energy              =    -413.83976382 Ry
     estimated scf accuracy    <       0.02118495 Ry

     iteration #  6     ecut=    90.00 Ry     beta= 0.70
     Davidson diagonalization with overlap
     ethr =  2.21E-05,  avg # of iterations =  2.0

     negative rho (up, down):  2.151E-07 0.000E+00

     total cpu time spent up to now is        6.7 secs

     total energy              =    -413.83925456 Ry
     estimated scf accuracy    <       0.00696967 Ry

     iteration #  7     ecut=    90.00 Ry     beta= 0.70
     Davidson diagonalization with overlap
     ethr =  7.26E-06,  avg # of iterations =  3.0

     negative rho (up, down):  2.752E-07 0.000E+00

     total cpu time spent up to now is        7.5 secs

     total energy              =    -413.84086191 Ry
     estimated scf accuracy    <       0.00014631 Ry

     iteration #  8     ecut=    90.00 Ry     beta= 0.70
     Davidson diagonalization with overlap
     ethr =  1.52E-07,  avg # of iterations =  6.0

     negative rho (up, down):  2.409E-07 0.000E+00

     total cpu time spent up to now is        9.0 secs

     total energy              =    -413.84092205 Ry
     estimated scf accuracy    <       0.00096848 Ry

     iteration #  9     ecut=    90.00 Ry     beta= 0.70
     Davidson diagonalization with overlap
     ethr =  1.52E-07,  avg # of iterations =  3.0

     negative rho (up, down):  1.932E-07 0.000E+00

     total cpu time spent up to now is       10.0 secs

     total energy              =    -413.84092930 Ry
     estimated scf accuracy    <       0.00015280 Ry

     iteration # 10     ecut=    90.00 Ry     beta= 0.70
     Davidson diagonalization with overlap
     ethr =  1.52E-07,  avg # of iterations =  2.8

     negative rho (up, down):  1.959E-07 0.000E+00

     total cpu time spent up to now is       10.8 secs

     total energy              =    -413.84096873 Ry
     estimated scf accuracy    <       0.00000138 Ry

     iteration # 11     ecut=    90.00 Ry     beta= 0.70
     Davidson diagonalization with overlap
     ethr =  1.44E-09,  avg # of iterations =  5.0

     negative rho (up, down):  1.929E-07 0.000E+00

     total cpu time spent up to now is       12.0 secs

     total energy              =    -413.84097052 Ry
     estimated scf accuracy    <       0.00000014 Ry

     iteration # 12     ecut=    90.00 Ry     beta= 0.70
     Davidson diagonalization with overlap
     ethr =  1.43E-10,  avg # of iterations =  3.0

     negative rho (up, down):  1.947E-07 0.000E+00

     total cpu time spent up to now is       12.9 secs

     End of self-consistent calculation

          k = 0.0000 0.0000 0.0000 ( 30469 PWs)   bands (ev):

   -20.8669 -20.4289 -20.4289 -20.2145 -20.2145 -20.1876 -20.1876 -20.1739
   -20.1704 -19.8816 -19.8816 -19.5815  -8.2421  -8.0473  -7.9885  -7.9885
    -7.9126  -7.9126  -7.4920  -7.3431  -7.3431  -7.1292  -7.1292  -7.0015
    -6.9370  -6.0689  -6.0689  -5.4964  -5.4964  -5.4161  -5.4161  -5.1262
    -4.9455  -4.3113  -4.3113  -3.6575  -2.9218  -2.9218  -2.8249  -2.7469
    -2.7008  -2.7008  -2.5625  -2.5625  -2.5470  -2.5276  -2.4809  -2.4809

          k =-0.1498-0.0865 0.3111 ( 30442 PWs)   bands (ev):

   -20.7960 -20.4681 -20.4174 -20.3528 -20.3294 -20.2586 -20.1208 -20.0795
   -20.0274 -19.8878 -19.8477 -19.6390  -8.1886  -8.1113  -8.0351  -7.9898
    -7.8944  -7.8333  -7.4882  -7.3121  -7.2995  -7.1636  -7.0408  -7.0048
    -6.8080  -6.2119  -6.0858  -5.8208  -5.5051  -5.3748  -5.2348  -5.0165
    -4.9611  -4.3022  -4.2418  -3.7886  -3.0339  -2.9634  -2.8483  -2.7908
    -2.7367  -2.7030  -2.6617  -2.5989  -2.5377  -2.4986  -2.4661  -2.4198

          k = 0.2996 0.1730-0.6221 ( 30432 PWs)   bands (ev):

   -20.6119 -20.6118 -20.4493 -20.4365 -20.3291 -20.3256 -20.0665 -20.0582
   -19.8938 -19.8918 -19.7869 -19.7695  -8.1656  -8.1086  -8.0252  -8.0053
    -7.8975  -7.8379  -7.4356  -7.3150  -7.2753  -7.1732  -6.9607  -6.9597
    -6.5726  -6.4347  -6.1391  -5.9802  -5.5067  -5.4257  -5.2321  -5.0770
    -4.5574  -4.4328  -4.1813  -3.9555  -3.1353  -2.9827  -2.8729  -2.8440
    -2.7740  -2.7549  -2.6668  -2.6097  -2.5896  -2.4620  -2.4516  -2.3751

          k =-0.1498 0.0865 0.6221 ( 30396 PWs)   bands (ev):

   -20.6524 -20.5218 -20.5130 -20.3990 -20.3774 -20.3143 -20.0726 -19.9947
   -19.9614 -19.8489 -19.8311 -19.7444  -8.1732  -8.0863  -8.0682  -7.9627
    -7.9155  -7.8247  -7.4408  -7.3503  -7.3001  -7.0736  -7.0081  -6.9556
    -6.5776  -6.3694  -6.2749  -5.8163  -5.6474  -5.4680  -5.1570  -4.9553
    -4.7543  -4.2678  -4.2448  -3.9679  -3.1134  -3.0244  -2.8614  -2.8165
    -2.7837  -2.7348  -2.6931  -2.6100  -2.5797  -2.4715  -2.4549  -2.3693

          k = 0.2996 0.3460-0.3111 ( 30407 PWs)   bands (ev):

   -20.7030 -20.5534 -20.4518 -20.4271 -20.3498 -20.2826 -20.0768 -19.9790
   -19.9692 -19.8854 -19.8259 -19.7199  -8.1798  -8.1555  -8.0060  -7.9839
    -7.9256  -7.8321  -7.4706  -7.4109  -7.2884  -7.0421  -7.0113  -6.9441
    -6.7008  -6.4058  -6.1719  -5.8356  -5.7979  -5.3084  -5.1253  -4.8686
    -4.6461  -4.4212  -4.2241  -3.9431  -3.0284  -2.9600  -2.8773  -2.8079
    -2.7562  -2.7061  -2.6459  -2.6380  -2.5563  -2.5160  -2.4578  -2.3576

          k = 0.1498 0.2595 0.0000 ( 30375 PWs)   bands (ev):

   -20.8156 -20.4997 -20.4467 -20.3217 -20.2945 -20.2163 -20.1409 -20.0716
   -20.0330 -19.8922 -19.8582 -19.6272  -8.2266  -8.1232  -8.0270  -7.9840
    -7.8687  -7.8627  -7.5403  -7.4042  -7.2217  -7.1329  -7.0691  -6.9618
    -6.9353  -6.1974  -6.0685  -5.8120  -5.7012  -5.2535  -5.1243  -4.9987
    -4.8203  -4.3794  -4.2882  -3.7495  -2.9228  -2.9039  -2.8605  -2.7746
    -2.7364  -2.7107  -2.5985  -2.5827  -2.5501  -2.5414  -2.4410  -2.4272

          k = 0.2996-0.1730-1.2442 ( 30362 PWs)   bands (ev):

   -20.6921 -20.6569 -20.4605 -20.3700 -20.2939 -20.2396 -20.0874 -20.0548
   -19.9450 -19.9255 -19.7533 -19.7379  -8.2062  -8.1691  -8.0390  -8.0038
    -7.8420  -7.8387  -7.5360  -7.4690  -7.2038  -7.1572  -6.9815  -6.9382
    -6.6379  -6.5946  -6.1378  -5.9190  -5.6107  -5.3733  -5.0042  -4.7518
    -4.6462  -4.5749  -4.1415  -3.9573  -2.9378  -2.8903  -2.8749  -2.8073
    -2.7382  -2.6832  -2.6619  -2.5914  -2.5814  -2.5379  -2.4074  -2.3930

          k = 0.0000 0.0000 0.9332 ( 30441 PWs)   bands (ev):

   -20.5999 -20.5999 -20.5238 -20.4820 -20.3116 -20.3116 -20.0044 -20.0044
   -19.8861 -19.8520 -19.8241 -19.8241  -8.1567  -8.1567  -8.0229  -7.9246
    -7.9246  -7.9117  -7.4791  -7.3797  -7.3797  -6.9521  -6.9521  -6.9155
    -6.5040  -6.5014  -6.5014  -5.8605  -5.5617  -5.5617  -4.9180  -4.7355
    -4.7355  -4.2881  -4.2881  -4.1198  -2.9729  -2.9729  -2.8535  -2.7963
    -2.7285  -2.7285  -2.6746  -2.6115  -2.6115  -2.5020  -2.5020  -2.3344

          k = 0.4494 0.2595 0.0000 ( 30403 PWs)   bands (ev):

   -20.7207 -20.5612 -20.5559 -20.3717 -20.2413 -20.2322 -20.1022 -20.0956
   -19.9457 -19.8566 -19.8242 -19.7096  -8.2008  -8.1583  -8.0928  -7.9421
    -7.8841  -7.8208  -7.5529  -7.4206  -7.2943  -7.0559  -7.0058  -6.9589
    -6.7390  -6.3710  -6.2953  -5.8720  -5.6266  -5.3674  -4.9275  -4.8886
    -4.6889  -4.3892  -4.2510  -3.9309  -2.9207  -2.9133  -2.8637  -2.8119
    -2.7538  -2.6971  -2.6295  -2.6074  -2.5582  -2.5156  -2.4576  -2.3751

          k = 0.2996 0.1730 0.3111 ( 30428 PWs)   bands (ev):

   -20.7481 -20.5112 -20.4266 -20.4129 -20.3287 -20.2736 -20.0903 -20.0614
   -19.9940 -19.8763 -19.8255 -19.6754  -8.1994  -8.1422  -8.0603  -7.9353
    -7.9312  -7.7846  -7.5053  -7.3802  -7.2043  -7.1324  -7.0879  -6.9926
    -6.7275  -6.2179  -6.0485  -5.9640  -5.7375  -5.4001  -5.1116  -4.9167
    -4.7586  -4.3690  -4.2317  -3.8318  -3.0463  -2.9714  -2.8985  -2.8451
    -2.7514  -2.7115  -2.6381  -2.6069  -2.5260  -2.4859  -2.4292  -2.4120

          k = 0.4494-0.2595-0.9332 ( 30380 PWs)   bands (ev):

   -20.6234 -20.6223 -20.4900 -20.4396 -20.3172 -20.2443 -20.1278 -20.0474
   -19.9110 -19.8587 -19.8103 -19.7313  -8.2276  -8.1303  -8.0904  -7.9426
    -7.8968  -7.7651  -7.5487  -7.3385  -7.2221  -7.1674  -7.0266  -6.9984
    -6.4743  -6.4357  -6.1225  -5.9748  -5.7914  -5.4862  -5.0707  -4.7956
    -4.4935  -4.4623  -4.2744  -3.8990  -3.0466  -2.9901  -2.9540  -2.8450
    -2.8109  -2.7267  -2.5896  -2.5682  -2.5388  -2.4988  -2.4310  -2.3775

          k = 0.2996-0.3460-0.6221 ( 30416 PWs)   bands (ev):

   -20.5804 -20.5768 -20.4793 -20.4704 -20.3471 -20.3458 -20.0505 -20.0442
   -19.8991 -19.8921 -19.7810 -19.7637  -8.2412  -8.0464  -8.0165  -7.9985
    -7.9636  -7.7692  -7.4672  -7.3474  -7.2017  -7.1559  -7.0066  -7.0015
    -6.4393  -6.3134  -6.1563  -6.0304  -5.7163  -5.6809  -4.9912  -4.9200
    -4.5016  -4.4586  -4.2862  -3.8831  -3.1654  -3.0040  -2.9520  -2.8833
    -2.8310  -2.6980  -2.6329  -2.5945  -2.5733  -2.4535  -2.4369  -2.3599

          k = 0.0000 0.0000-1.8663 ( 30414 PWs)   bands (ev):

   -20.5507 -20.5366 -20.4446 -20.4446 -20.4403 -20.4403 -19.9785 -19.9785
   -19.9485 -19.9485 -19.7663 -19.7524  -8.2876  -8.0114  -8.0114  -7.9893
    -7.9893  -7.7383  -7.5160  -7.3440  -7.1090  -7.1090  -7.0779  -7.0779
    -6.2708  -6.0889  -6.0404  -6.0404  -6.0272  -6.0272  -4.7776  -4.7776
    -4.5370  -4.5370  -4.3074  -3.8338  -3.1960  -3.0060  -3.0060  -2.9189
    -2.9189  -2.6453  -2.6277  -2.5340  -2.5340  -2.4663  -2.4663  -2.3355

          k = 0.2996-0.3460 0.3111 ( 30407 PWs)   bands (ev):

   -20.7029 -20.5529 -20.4565 -20.4241 -20.3471 -20.2834 -20.0776 -19.9918
   -19.9515 -19.8949 -19.8196 -19.7216  -8.1951  -8.1228  -8.0421  -7.9801
    -7.8974  -7.8396  -7.5163  -7.3807  -7.2643  -7.0791  -6.9766  -6.9643
    -6.6941  -6.3399  -6.2632  -5.8875  -5.6530  -5.3692  -5.2047  -4.7814
    -4.6258  -4.4083  -4.2910  -3.9226  -3.0358  -2.9325  -2.8935  -2.8046
    -2.7610  -2.7116  -2.6463  -2.6385  -2.5735  -2.4860  -2.4587  -2.3657

     highest occupied level (ev):    -2.3344

!    total energy              =    -413.84097051 Ry
     estimated scf accuracy    <       0.00000008 Ry

     The total energy is the sum of the following terms:
     one-electron contribution =    -294.19764450 Ry
     hartree contribution      =     181.13417652 Ry
     xc contribution           =    -101.03063220 Ry
     ewald contribution        =    -199.74687033 Ry

     convergence has been achieved in  12 iterations

     Forces acting on atoms (cartesian axes, Ry/au):

     atom    1 type  2   force =    -0.03930946    0.07665653    0.03946677
     atom    2 type  2   force =     0.03930946   -0.07665653   -0.03946677
     atom    3 type  2   force =    -0.04673178   -0.07237126    0.03946677
     atom    4 type  2   force =     0.04673178    0.07237126   -0.03946677
     atom    5 type  2   force =     0.08604124   -0.00428528    0.03946677
     atom    6 type  2   force =    -0.08604124    0.00428528   -0.03946677
     atom    7 type  2   force =    -0.04146416    0.03093188   -0.02821757
     atom    8 type  2   force =     0.04146416   -0.03093188    0.02821757
     atom    9 type  2   force =    -0.00605571   -0.05137495   -0.02821757
     atom   10 type  2   force =     0.00605571    0.05137495    0.02821757
     atom   11 type  2   force =     0.04751987    0.02044307   -0.02821757
     atom   12 type  2   force =    -0.04751987   -0.02044307    0.02821757
     atom   13 type  1   force =     0.00816259   -0.03641771   -0.04685279
     atom   14 type  1   force =    -0.00816259    0.03641771    0.04685279
     atom   15 type  1   force =     0.02745736    0.02527787   -0.04685279
     atom   16 type  1   force =    -0.02745736   -0.02527787    0.04685279
     atom   17 type  1   force =    -0.03561995    0.01113984   -0.04685279
     atom   18 type  1   force =     0.03561995   -0.01113984    0.04685279
     atom   19 type  1   force =     0.02909607   -0.04706375   -0.00277667
     atom   20 type  1   force =    -0.02909607    0.04706375    0.00277667
     atom   21 type  1   force =     0.02621037    0.04872981   -0.00277667
     atom   22 type  1   force =    -0.02621037   -0.04872981    0.00277667
     atom   23 type  1   force =    -0.05530644   -0.00166606   -0.00277667
     atom   24 type  1   force =     0.05530644    0.00166606    0.00277667
     atom   25 type  1   force =    -0.01732754   -0.01509117    0.01321891
     atom   26 type  1   force =     0.01732754    0.01509117   -0.01321891
     atom   27 type  1   force =     0.02173311   -0.00746050    0.01321891
     atom   28 type  1   force =    -0.02173311    0.00746050   -0.01321891
     atom   29 type  1   force =    -0.00440557    0.02255168    0.01321891
     atom   30 type  1   force =     0.00440557   -0.02255168   -0.01321891
     atom   31 type  1   force =    -0.03706856   -0.00209938    0.02278518
     atom   32 type  1   force =     0.03706856    0.00209938   -0.02278518
     atom   33 type  1   force =     0.02035239   -0.03105263    0.02278518
     atom   34 type  1   force =    -0.02035239    0.03105263   -0.02278518
     atom   35 type  1   force =     0.01671616    0.03315200    0.02278518
     atom   36 type  1   force =    -0.01671616   -0.03315200   -0.02278518

     Total force =     0.360908     Total SCF correction =     0.000310


     Computing stress (Cartesian axis) and pressure

          total   stress  (Ry/bohr**3)                   (kbar)     P=      -40.93
  -0.00035664   0.00000000  -0.00000000          -52.46        0.00       -0.00
  -0.00000000  -0.00035664  -0.00000000           -0.00      -52.46       -0.00
  -0.00000000  -0.00000000  -0.00012147           -0.00       -0.00      -17.87


     BFGS Geometry Optimization
     Energy error            =      0.0E+00 Ry
     Gradient error          =      8.6E-02 Ry/Bohr

     number of scf cycles    =   1
     number of bfgs steps    =   0

     energy             new  =    -413.8409705057 Ry

     new trust radius        =       0.0947580286 bohr
     new conv_thr            =       0.0000001000 Ry


ATOMIC_POSITIONS (crystal)
O                0.2729343801        0.0308858991        0.8571102754
O                0.7270656199        0.9691141119        0.1428896946
O                0.8571102754        0.2729343801        0.0308858991
O                0.1428896946        0.7270656199        0.9691141119
O                0.0308858991        0.8571102754        0.2729343801
O                0.9691141119        0.1428896946        0.7270656199
O                0.4732368691        0.7490761521        0.3305868804
O                0.5267631309        0.2509238479        0.6694130896
O                0.3305868804        0.4732368691        0.7490761521
O                0.6694130896        0.5267631309        0.2509238479
O                0.7490761521        0.3305868804        0.4732368691
O                0.2509238479        0.6694130896        0.5267631309
H                0.1622494326        0.0633715841        0.8065899480
H                0.8377505534        0.9366284079        0.1934100520
H                0.8065899480        0.1622494326        0.0633715841
H                0.1934100520        0.8377505534        0.9366284079
H                0.0633715841        0.8065899480        0.1622494326
H                0.9366284079        0.1934100520        0.8377505534
H                0.4150401419        0.2025717840        0.9966893768
H                0.5849598581        0.7974282310        0.0033106022
H                0.9966893768        0.4150401419        0.2025717840
H                0.0033106022        0.5849598581        0.7974282310
H                0.2025717840        0.9966893768        0.4150401419
H                0.7974282310        0.0033106022        0.5849598581
H                0.7197606897        0.4014047618        0.3971606608
H                0.2802393103        0.5985952082        0.6028393692
H                0.3971606608        0.7197606897        0.4014047618
H                0.6028393692        0.2802393103        0.5985952082
H                0.4014047618        0.3971606608        0.7197606897
H                0.5985952082        0.6028393692        0.2802393103
H                0.7414625821        0.2048131266        0.3634574756
H                0.2585374179        0.7951868584        0.6365425244
H                0.3634574756        0.7414625821        0.2048131266
H                0.6365425244        0.2585374179        0.7951868584
H                0.2048131266        0.3634574756        0.7414625821
H                0.7951868584        0.6365425244        0.2585374179



     Writing config-only to output data dir ./iceII/iceII.save/ :
     XML data file
     NEW-OLD atomic charge density approx. for the potential

     negative rho (up, down):  2.651E-07 0.000E+00

     total cpu time spent up to now is       14.1 secs

     per-process dynamical memory:    25.8 Mb

     Self-consistent Calculation

     iteration #  1     ecut=    90.00 Ry     beta= 0.70
     Davidson diagonalization with overlap
     ethr =  1.00E-06,  avg # of iterations =  9.0

     negative rho (up, down):  5.125E-07 0.000E+00

     total cpu time spent up to now is       16.3 secs

     total energy              =    -413.90174651 Ry
     estimated scf accuracy    <       0.03345657 Ry

     iteration #  2     ecut=    90.00 Ry     beta= 0.70
     Davidson diagonalization with overlap
     ethr =  3.49E-05,  avg # of iterations =  3.0

     negative rho (up, down):  5.161E-07 0.000E+00

     total cpu time spent up to now is       17.2 secs

     total energy              =    -413.91081695 Ry
     estimated scf accuracy    <       0.01009868 Ry

     iteration #  3     ecut=    90.00 Ry     beta= 0.70
     Davidson diagonalization with overlap
     ethr =  1.05E-05,  avg # of iterations =  2.0

     negative rho (up, down):  5.424E-07 0.000E+00

     total cpu time spent up to now is       18.0 secs

     total energy              =    -413.91226332 Ry
     estimated scf accuracy    <       0.00031363 Ry

     iteration #  4     ecut=    90.00 Ry     beta= 0.70
     Davidson diagonalization with overlap
     ethr =  3.27E-07,  avg # of iterations =  5.0

     negative rho (up, down):  5.694E-07 0.000E+00

     total cpu time spent up to now is       19.1 secs

     total energy              =    -413.91244686 Ry
     estimated scf accuracy    <       0.00029693 Ry

     iteration #  5     ecut=    90.00 Ry     beta= 0.70
     Davidson diagonalization with overlap
     ethr =  3.09E-07,  avg # of iterations =  2.0

     negative rho (up, down):  5.888E-07 0.000E+00

     total cpu time spent up to now is       19.8 secs

     total energy              =    -413.91247328 Ry
     estimated scf accuracy    <       0.00002651 Ry

     iteration #  6     ecut=    90.00 Ry     beta= 0.70
     Davidson diagonalization with overlap
     ethr =  2.76E-08,  avg # of iterations =  4.7

     negative rho (up, down):  5.822E-07 0.000E+00

     total cpu time spent up to now is       21.0 secs

     total energy              =    -413.91248254 Ry
     estimated scf accuracy    <       0.00003639 Ry

     iteration #  7     ecut=    90.00 Ry     beta= 0.70
     Davidson diagonalization with overlap
     ethr =  2.76E-08,  avg # of iterations =  3.0

     negative rho (up, down):  5.796E-07 0.000E+00

     total cpu time spent up to now is       21.9 secs

     End of self-consistent calculation

          k = 0.0000 0.0000 0.0000 ( 30469 PWs)   bands (ev):

   -21.1664 -20.7609 -20.7609 -20.5503 -20.5503 -20.5325 -20.5325 -20.5206
   -20.5088 -20.2443 -20.2443 -19.9766  -8.6356  -8.4407  -8.3832  -8.3832
    -8.3704  -8.3704  -7.8772  -7.8772  -7.7910  -7.7544  -7.7544  -7.6061
    -7.0556  -5.9607  -5.9607  -5.3808  -5.3808  -5.3263  -5.3263  -5.0262
    -4.9605  -4.3062  -4.3062  -3.6675  -3.0077  -3.0077  -2.9524  -2.7880
    -2.7880  -2.7867  -2.6310  -2.6168  -2.6168  -2.6053  -2.5398  -2.5398

          k =-0.1498-0.0865 0.3111 ( 30442 PWs)   bands (ev):

   -21.0995 -20.7927 -20.7500 -20.6804 -20.6658 -20.6014 -20.4645 -20.4233
   -20.3787 -20.2536 -20.2167 -20.0279  -8.5920  -8.4812  -8.4266  -8.4068
    -8.3463  -8.2866  -7.9053  -7.8661  -7.7787  -7.7285  -7.6903  -7.6610
    -6.8523  -6.1124  -5.9945  -5.7079  -5.4782  -5.2296  -5.1581  -4.9381
    -4.8717  -4.3011  -4.2324  -3.7909  -3.1093  -3.0438  -2.9556  -2.8465
    -2.8242  -2.7848  -2.7415  -2.6565  -2.6011  -2.5543  -2.5320  -2.4851

          k = 0.2996 0.1730-0.6221 ( 30432 PWs)   bands (ev):

   -20.9345 -20.9171 -20.7835 -20.7492 -20.6749 -20.6617 -20.4149 -20.3956
   -20.2662 -20.2532 -20.1686 -20.1408  -8.5205  -8.5194  -8.4448  -8.4145
    -8.3382  -8.2736  -7.8901  -7.8465  -7.7809  -7.7675  -7.6443  -7.6334
    -6.5017  -6.3631  -6.0512  -5.9229  -5.4671  -5.3770  -5.0689  -4.9095
    -4.5056  -4.4008  -4.1748  -3.9649  -3.1988  -3.0623  -2.9622  -2.9006
    -2.8532  -2.8489  -2.7322  -2.6822  -2.6623  -2.5235  -2.5047  -2.4405

          k =-0.1498 0.0865 0.6221 ( 30396 PWs)   bands (ev):

   -20.9644 -20.8410 -20.8336 -20.7288 -20.7097 -20.6541 -20.4162 -20.3460
   -20.3185 -20.2214 -20.2046 -20.1221  -8.5334  -8.4922  -8.4786  -8.3821
    -8.3520  -8.2699  -7.8762  -7.8655  -7.8216  -7.6991  -7.6656  -7.6376
    -6.5297  -6.2558  -6.2045  -5.7636  -5.5769  -5.4153  -5.0080  -4.8215
    -4.6665  -4.2625  -4.2345  -3.9729  -3.1787  -3.0983  -2.9490  -2.8888
    -2.8730  -2.8008  -2.7714  -2.6787  -2.6517  -2.5325  -2.5090  -2.4341

          k = 0.2996 0.3460-0.3111 ( 30407 PWs)   bands (ev):

   -21.0125 -20.8768 -20.7690 -20.7628 -20.6747 -20.6199 -20.4254 -20.3445
   -20.3225 -20.2495 -20.1981 -20.0983  -8.5566  -8.5312  -8.4253  -8.3950
    -8.3517  -8.2634  -7.9639  -7.9333  -7.8335  -7.6746  -7.6486  -7.6145
    -6.5905  -6.2764  -6.0397  -5.7902  -5.7622  -5.2646  -4.9406  -4.8185
    -4.6162  -4.3822  -4.2098  -3.9360  -3.1064  -3.0440  -2.9683  -2.9013
    -2.8215  -2.7689  -2.7258  -2.7075  -2.6310  -2.5767  -2.5112  -2.4190

          k = 0.1498 0.2595 0.0000 ( 30375 PWs)   bands (ev):

   -21.1184 -20.8278 -20.7781 -20.6498 -20.6219 -20.5512 -20.4919 -20.4282
   -20.3890 -20.2543 -20.2208 -20.0167  -8.6145  -8.4893  -8.4266  -8.4056
    -8.3159  -8.3025  -7.9909  -7.9273  -7.7846  -7.7386  -7.6850  -7.6044
    -6.8801  -6.0609  -5.9537  -5.7394  -5.6254  -5.1891  -5.0383  -4.8941
    -4.8147  -4.3581  -4.2813  -3.7483  -3.0092  -2.9935  -2.9741  -2.8588
    -2.7995  -2.7778  -2.6640  -2.6465  -2.6385  -2.6000  -2.4987  -2.4860

          k = 0.2996-0.1730-1.2442 ( 30362 PWs)   bands (ev):

   -21.0012 -20.9741 -20.7923 -20.6924 -20.6264 -20.5672 -20.4489 -20.4087
   -20.3156 -20.2788 -20.1326 -20.1093  -8.5761  -8.5410  -8.4371  -8.4158
    -8.2858  -8.2672  -8.0530  -7.9742  -7.8000  -7.7325  -7.6336  -7.6066
    -6.4770  -6.4493  -5.9926  -5.9005  -5.5518  -5.3115  -4.9192  -4.7423
    -4.5798  -4.5386  -4.1232  -3.9397  -3.0260  -2.9834  -2.9739  -2.9029
    -2.8099  -2.7429  -2.7229  -2.6718  -2.6437  -2.6019  -2.4670  -2.4520

          k = 0.0000 0.0000 0.9332 ( 30441 PWs)   bands (ev):

   -20.9153 -20.9153 -20.8604 -20.7930 -20.6424 -20.6424 -20.3630 -20.3630
   -20.2630 -20.2032 -20.1966 -20.1966  -8.5336  -8.5336  -8.4625  -8.3412
    -8.3412  -8.3216  -7.9926  -7.8995  -7.8995  -7.6260  -7.6260  -7.5964
    -6.3535  -6.3535  -6.3147  -5.8515  -5.5245  -5.5245  -4.7348  -4.6804
    -4.6804  -4.2660  -4.2660  -4.1195  -3.0574  -3.0574  -2.9502  -2.9044
    -2.7937  -2.7937  -2.7460  -2.6821  -2.6821  -2.5533  -2.5533  -2.3948

          k = 0.4494 0.2595 0.0000 ( 30403 PWs)   bands (ev):

   -21.0298 -20.8818 -20.8809 -20.6912 -20.5831 -20.5620 -20.4578 -20.4447
   -20.3166 -20.2225 -20.1893 -20.0882  -8.5783  -8.5226  -8.4815  -8.3690
    -8.3225  -8.2495  -8.0655  -7.9349  -7.8571  -7.6763  -7.6504  -7.6143
    -6.5913  -6.2150  -6.1542  -5.8667  -5.5507  -5.2898  -4.8901  -4.8517
    -4.6174  -4.3516  -4.2336  -3.9154  -3.0100  -3.0006  -2.9678  -2.9086
    -2.8212  -2.7583  -2.7025  -2.6760  -2.6241  -2.5783  -2.5168  -2.4334

          k = 0.2996 0.1730 0.3111 ( 30428 PWs)   bands (ev):

   -21.0549 -20.8365 -20.7550 -20.7377 -20.6587 -20.6142 -20.4345 -20.4191
   -20.3412 -20.2488 -20.1942 -20.0591  -8.5771  -8.5087  -8.4481  -8.3832
    -8.3558  -8.2385  -7.9845  -7.8560  -7.7814  -7.7570  -7.6641  -7.6557
    -6.6995  -6.1233  -5.9907  -5.8426  -5.6550  -5.2758  -5.0454  -4.8602
    -4.7064  -4.3420  -4.2191  -3.8278  -3.1240  -3.0486  -2.9896  -2.9043
    -2.8314  -2.7848  -2.7171  -2.6767  -2.5970  -2.5589  -2.4896  -2.4690

          k = 0.4494-0.2595-0.9332 ( 30380 PWs)   bands (ev):

   -20.9413 -20.9371 -20.8162 -20.7566 -20.6495 -20.5899 -20.4672 -20.4035
   -20.2695 -20.2343 -20.1833 -20.1051  -8.5580  -8.5243  -8.4769  -8.3796
    -8.3362  -8.2053  -8.0362  -7.8776  -7.7876  -7.7642  -7.6581  -7.6427
    -6.4071  -6.3000  -6.0044  -5.9751  -5.6867  -5.3296  -5.0440  -4.7792
    -4.4574  -4.3980  -4.2493  -3.8871  -3.1275  -3.0648  -3.0275  -2.9108
    -2.8696  -2.8174  -2.6701  -2.6413  -2.6172  -2.5674  -2.4945  -2.4320

          k = 0.2996-0.3460-0.6221 ( 30416 PWs)   bands (ev):

   -20.9080 -20.8825 -20.8068 -20.7866 -20.6856 -20.6800 -20.4017 -20.3896
   -20.2655 -20.2548 -20.1659 -20.1327  -8.5637  -8.4689  -8.4411  -8.4098
    -8.3843  -8.2138  -7.9097  -7.8895  -7.7590  -7.7508  -7.6674  -7.6626
    -6.3730  -6.2577  -6.0607  -6.0052  -5.5894  -5.5505  -4.9071  -4.8350
    -4.4660  -4.4216  -4.2511  -3.8924  -3.2248  -3.0773  -3.0289  -2.9398
    -2.8996  -2.7672  -2.7216  -2.6731  -2.6530  -2.5216  -2.5032  -2.4151

          k = 0.0000 0.0000-1.8663 ( 30414 PWs)   bands (ev):

   -20.8846 -20.8368 -20.7782 -20.7782 -20.7599 -20.7599 -20.3457 -20.3457
   -20.2977 -20.2977 -20.1530 -20.1218  -8.5832  -8.4403  -8.4403  -8.4053
    -8.4053  -8.1753  -7.9308  -7.9209  -7.7230  -7.7230  -7.7082  -7.7082
    -6.2534  -6.1748  -5.9020  -5.9020  -5.8650  -5.8650  -4.7230  -4.7230
    -4.5102  -4.5102  -4.2414  -3.8419  -3.2499  -3.0748  -3.0748  -2.9721
    -2.9721  -2.7304  -2.7156  -2.6149  -2.6149  -2.5377  -2.5377  -2.3878

          k = 0.2996-0.3460 0.3111 ( 30407 PWs)   bands (ev):

   -21.0129 -20.8726 -20.7894 -20.7482 -20.6709 -20.6202 -20.4275 -20.3567
   -20.2977 -20.2685 -20.1892 -20.1003  -8.5676  -8.5056  -8.4408  -8.4128
    -8.3183  -8.2767  -7.9899  -7.9102  -7.8270  -7.6790  -7.6452  -7.6186
    -6.5967  -6.2079  -6.1406  -5.8304  -5.6229  -5.3199  -5.0525  -4.7018
    -4.5706  -4.4028  -4.2630  -3.9178  -3.1123  -3.0241  -2.9827  -2.8929
    -2.8167  -2.7840  -2.7200  -2.7147  -2.6474  -2.5464  -2.5140  -2.4262

     highest occupied level (ev):    -2.3878

!    total energy              =    -413.91249047 Ry
     estimated scf accuracy    <       0.00000008 Ry

     The total energy is the sum of the following terms:
     one-electron contribution =    -300.30175652 Ry
     hartree contribution      =     183.89542126 Ry
     xc contribution           =    -101.73793299 Ry
     ewald contribution        =    -195.76822221 Ry

     convergence has been achieved in   7 iterations

     Forces acting on atoms (cartesian axes, Ry/au):

     atom    1 type  2   force =    -0.00344694   -0.00568504    0.00191723
     atom    2 type  2   force =     0.00344694    0.00568504   -0.00191723
     atom    3 type  2   force =     0.00664686   -0.00014262    0.00191723
     atom    4 type  2   force =    -0.00664686    0.00014262   -0.00191723
     atom    5 type  2   force =    -0.00319992    0.00582766    0.00191723
     atom    6 type  2   force =     0.00319992   -0.00582766   -0.00191723
     atom    7 type  2   force =     0.00233279   -0.01067758    0.00414015
     atom    8 type  2   force =    -0.00233279    0.01067758   -0.00414015
     atom    9 type  2   force =     0.00808066    0.00735904    0.00414015
     atom   10 type  2   force =    -0.00808066   -0.00735904   -0.00414015
     atom   11 type  2   force =    -0.01041345    0.00331854    0.00414015
     atom   12 type  2   force =     0.01041345   -0.00331854   -0.00414015
     atom   13 type  1   force =    -0.01692026    0.02043094   -0.04418958
     atom   14 type  1   force =     0.01692026   -0.02043094    0.04418958
     atom   15 type  1   force =    -0.00923358   -0.02486885   -0.04418958
     atom   16 type  1   force =     0.00923358    0.02486885    0.04418958
     atom   17 type  1   force =     0.02615384    0.00443791   -0.04418958
     atom   18 type  1   force =    -0.02615384   -0.00443791    0.04418958
     atom   19 type  1   force =     0.02114682   -0.01949644    0.03551384
     atom   20 type  1   force =    -0.02114682    0.01949644   -0.03551384
     atom   21 type  1   force =     0.00631100    0.02806190    0.03551384
     atom   22 type  1   force =    -0.00631100   -0.02806190   -0.03551384
     atom   23 type  1   force =    -0.02745782   -0.00856546    0.03551384
     atom   24 type  1   force =     0.02745782    0.00856546   -0.03551384
     atom   25 type  1   force =     0.00289756    0.01830846    0.00541367
     atom   26 type  1   force =    -0.00289756   -0.01830846   -0.00541367
     atom   27 type  1   force =    -0.01730437   -0.00664487    0.00541367
     atom   28 type  1   force =     0.01730437    0.00664487   -0.00541367
     atom   29 type  1   force =     0.01440681   -0.01166359    0.00541367
     atom   30 type  1   force =    -0.01440681    0.01166359   -0.00541367
     atom   31 type  1   force =     0.00325268   -0.01882311   -0.00559501
     atom   32 type  1   force =    -0.00325268    0.01882311    0.00559501
     atom   33 type  1   force =     0.01467495    0.01222846   -0.00559501
     atom   34 type  1   force =    -0.01467495   -0.01222846    0.00559501
     atom   35 type  1   force =    -0.01792763    0.00659465   -0.00559501
     atom   36 type  1   force =     0.01792763   -0.00659465    0.00559501

     Total force =     0.184909     Total SCF correction =     0.000830


     Computing stress (Cartesian axis) and pressure

          total   stress  (Ry/bohr**3)                   (kbar)     P=       18.09
   0.00007179   0.00000000   0.00000000           10.56        0.00        0.00
  -0.00000000   0.00007179   0.00000000           -0.00       10.56        0.00
   0.00000000   0.00000000   0.00022537            0.00        0.00       33.15

     Energy error            =      7.2E-02 Ry
     Gradient error          =      4.4E-02 Ry/Bohr

     number of scf cycles    =   2
     number of bfgs steps    =   1

     energy             old  =    -413.8409705057 Ry
     energy             new  =    -413.9124904693 Ry

     CASE: energy            _new < energy            _old

     new trust radius        =       0.0639815390 bohr
     new conv_thr            =       0.0000001000 Ry


ATOMIC_POSITIONS (crystal)
O                0.2730797247        0.0328055117        0.8584899712
O                0.7269202753        0.9671944993        0.1415099988
O                0.8584899712        0.2730797247        0.0328055117
O                0.1415099988        0.7269202753        0.9671944993
O                0.0328055117        0.8584899712        0.2730797247
O                0.9671944993        0.1415099988        0.7269202753
O                0.4725696634        0.7486425046        0.3307064567
O                0.5274303366        0.2513574954        0.6692935133
O                0.3307064567        0.4725696634        0.7486425046
O                0.6692935133        0.5274303366        0.2513574954
O                0.7486425046        0.3307064567        0.4725696634
O                0.2513574954        0.6692935133        0.5274303366
H                0.1562387167        0.0587696484        0.8018452997
H                0.8437612693        0.9412303436        0.1981547003
H                0.8018452997        0.1562387167        0.0587696484
H                0.1981547003        0.8437612693        0.9412303436
H                0.0587696484        0.8018452997        0.1562387167
H                0.9412303436        0.1981547003        0.8437612693
H                0.4202229821        0.2040663690        0.9993533739
H                0.5797770179        0.7959336460        0.0006466051
H                0.9993533739        0.4202229821        0.2040663690
H                0.0006466051        0.5797770179        0.7959336460
H                0.2040663690        0.9993533739        0.4202229821
H                0.7959336460        0.0006466051        0.5797770179
H                0.7201390433        0.4029217517        0.3977018319
H                0.2798609567        0.5970782183        0.6022981981
H                0.3977018319        0.7201390433        0.4029217517
H                0.6022981981        0.2798609567        0.5970782183
H                0.4029217517        0.3977018319        0.7201390433
H                0.5970782183        0.6022981981        0.2798609567
H                0.7417070893        0.2039084526        0.3643046037
H                0.2582929107        0.7960915324        0.6356953963
H                0.3643046037        0.7417070893        0.2039084526
H                0.6356953963        0.2582929107        0.7960915324
H                0.2039084526        0.3643046037        0.7417070893
H                0.7960915324        0.6356953963        0.2582929107



     Writing config-only to output data dir ./iceII/iceII.save/ :
     XML data file
     NEW-OLD atomic charge density approx. for the potential

     negative rho (up, down):  5.784E-07 0.000E+00

     total cpu time spent up to now is       23.1 secs

     per-process dynamical memory:    26.0 Mb

     Self-consistent Calculation

     iteration #  1     ecut=    90.00 Ry     beta= 0.70
     Davidson diagonalization with overlap
     ethr =  1.00E-06,  avg # of iterations =  7.0

     negative rho (up, down):  3.082E-07 0.000E+00

     total cpu time spent up to now is       24.6 secs

     total energy              =    -413.94209089 Ry
     estimated scf accuracy    <       0.00112890 Ry

     iteration #  2     ecut=    90.00 Ry     beta= 0.70
     Davidson diagonalization with overlap
     ethr =  1.18E-06,  avg # of iterations =  2.0

     negative rho (up, down):  2.596E-07 0.000E+00

     total cpu time spent up to now is       25.4 secs

     total energy              =    -413.94227912 Ry
     estimated scf accuracy    <       0.00013232 Ry

     iteration #  3     ecut=    90.00 Ry     beta= 0.70
     Davidson diagonalization with overlap
     ethr =  1.38E-07,  avg # of iterations =  2.0

     negative rho (up, down):  2.371E-07 0.000E+00

     total cpu time spent up to now is       26.2 secs

     total energy              =    -413.94230517 Ry
     estimated scf accuracy    <       0.00001212 Ry

     iteration #  4     ecut=    90.00 Ry     beta= 0.70
     Davidson diagonalization with overlap
     ethr =  1.26E-08,  avg # of iterations =  2.0

     negative rho (up, down):  2.316E-07 0.000E+00

     total cpu time spent up to now is       26.9 secs

     total energy              =    -413.94230666 Ry
     estimated scf accuracy    <       0.00000063 Ry

     iteration #  5     ecut=    90.00 Ry     beta= 0.70
     Davidson diagonalization with overlap
     ethr =  6.57E-10,  avg # of iterations =  3.0

     negative rho (up, down):  2.311E-07 0.000E+00

     total cpu time spent up to now is       27.8 secs

     End of self-consistent calculation

          k = 0.0000 0.0000 0.0000 ( 30469 PWs)   bands (ev):

   -21.0730 -20.6618 -20.6618 -20.4430 -20.4430 -20.4319 -20.4319 -20.4155
   -20.3977 -20.1257 -20.1257 -19.8626  -8.6603  -8.4813  -8.4369  -8.4369
    -8.4085  -8.4085  -7.9793  -7.9793  -7.9192  -7.8835  -7.8835  -7.7439
    -6.9342  -5.8083  -5.8083  -5.3192  -5.3192  -5.1672  -5.1672  -4.8692
    -4.8677  -4.2030  -4.2030  -3.5576  -2.9946  -2.9946  -2.9328  -2.7660
    -2.7660  -2.7508  -2.6223  -2.5810  -2.5810  -2.5779  -2.5213  -2.5213

          k =-0.1498-0.0865 0.3111 ( 30442 PWs)   bands (ev):

   -21.0062 -20.6946 -20.6555 -20.5770 -20.5522 -20.4920 -20.3629 -20.3199
   -20.2742 -20.1339 -20.0987 -19.9129  -8.6201  -8.5170  -8.4703  -8.4502
    -8.3924  -8.3356  -8.0122  -7.9776  -7.9055  -7.8480  -7.8160  -7.7896
    -6.7359  -5.9800  -5.8515  -5.5922  -5.4249  -5.1164  -4.9902  -4.8307
    -4.7063  -4.1985  -4.1287  -3.6921  -3.0887  -3.0285  -2.9360  -2.8255
    -2.8045  -2.7538  -2.7240  -2.6218  -2.5843  -2.5232  -2.5102  -2.4648

          k = 0.2996 0.1730-0.6221 ( 30432 PWs)   bands (ev):

   -20.8544 -20.8088 -20.6847 -20.6436 -20.5728 -20.5432 -20.3218 -20.2834
   -20.1766 -20.1228 -20.0582 -20.0162  -8.5541  -8.5478  -8.4873  -8.4583
    -8.3888  -8.3184  -7.9979  -7.9660  -7.9006  -7.8840  -7.7714  -7.7598
    -6.3606  -6.2537  -5.9127  -5.8412  -5.3792  -5.3144  -4.8640  -4.7426
    -4.3552  -4.2970  -4.0792  -3.8974  -3.1712  -3.0478  -2.9472  -2.8715
    -2.8306  -2.8193  -2.7102  -2.6781  -2.6284  -2.5100  -2.4640  -2.4209

          k =-0.1498 0.0865 0.6221 ( 30396 PWs)   bands (ev):

   -20.8749 -20.7451 -20.7316 -20.6270 -20.5970 -20.5433 -20.3153 -20.2467
   -20.2090 -20.1079 -20.0875 -20.0009  -8.5620  -8.5261  -8.5171  -8.4369
    -8.3938  -8.3162  -7.9897  -7.9778  -7.9371  -7.8211  -7.7917  -7.7652
    -6.3973  -6.1318  -6.0904  -5.6616  -5.4926  -5.3295  -4.8374  -4.6335
    -4.5279  -4.1713  -4.1229  -3.9059  -3.1533  -3.0781  -2.9374  -2.8572
    -2.8440  -2.7815  -2.7534  -2.6547  -2.6344  -2.5137  -2.4740  -2.4120

          k = 0.2996 0.3460-0.3111 ( 30407 PWs)   bands (ev):

   -20.9188 -20.7742 -20.7057 -20.6302 -20.5650 -20.5101 -20.3260 -20.2542
   -20.1722 -20.1693 -20.0709 -19.9829  -8.5853  -8.5584  -8.4637  -8.4363
    -8.4022  -8.3139  -8.0763  -8.0472  -7.9560  -7.8012  -7.7748  -7.7429
    -6.4680  -6.1372  -5.9024  -5.7078  -5.6640  -5.1573  -4.7471  -4.6716
    -4.5270  -4.2621  -4.1080  -3.8521  -3.0844  -3.0284  -2.9516  -2.8774
    -2.7943  -2.7403  -2.7078  -2.6851  -2.6200  -2.5582  -2.4719  -2.3948

          k = 0.1498 0.2595 0.0000 ( 30375 PWs)   bands (ev):

   -21.0244 -20.7303 -20.6802 -20.5465 -20.5157 -20.4430 -20.3878 -20.3217
   -20.2810 -20.1373 -20.1025 -19.9027  -8.6390  -8.5229  -8.4668  -8.4438
    -8.3658  -8.3564  -8.1008  -8.0371  -7.9140  -7.8610  -7.8108  -7.7396
    -6.7592  -5.9037  -5.8211  -5.6311  -5.5336  -5.0612  -4.9004  -4.7496
    -4.7158  -4.2506  -4.1844  -3.6397  -2.9953  -2.9800  -2.9574  -2.8365
    -2.7724  -2.7449  -2.6432  -2.6346  -2.6137  -2.5732  -2.4707  -2.4593

          k = 0.2996-0.1730-1.2442 ( 30362 PWs)   bands (ev):

   -20.9047 -20.8794 -20.6955 -20.5898 -20.5192 -20.4604 -20.3429 -20.3016
   -20.2027 -20.1639 -20.0207 -19.9921  -8.6008  -8.5670  -8.4729  -8.4521
    -8.3356  -8.3231  -8.1680  -8.0903  -7.9295  -7.8517  -7.7640  -7.7365
    -6.3433  -6.3305  -5.8562  -5.7997  -5.4398  -5.1741  -4.7604  -4.6389
    -4.4675  -4.4248  -4.0138  -3.8465  -3.0085  -2.9683  -2.9604  -2.8825
    -2.7809  -2.7088  -2.6996  -2.6616  -2.6257  -2.5801  -2.4382  -2.4207

          k = 0.0000 0.0000 0.9332 ( 30441 PWs)   bands (ev):

   -20.8176 -20.8176 -20.7815 -20.6712 -20.5364 -20.5364 -20.2563 -20.2563
   -20.1688 -20.0823 -20.0823 -20.0727  -8.5626  -8.5626  -8.4960  -8.3862
    -8.3828  -8.3828  -8.1030  -8.0177  -8.0177  -7.7536  -7.7536  -7.7250
    -6.2327  -6.2327  -6.1295  -5.8169  -5.4141  -5.4141  -4.5379  -4.5379
    -4.5108  -4.1743  -4.1743  -4.0690  -3.0388  -3.0388  -2.9301  -2.8942
    -2.7621  -2.7621  -2.7169  -2.6722  -2.6722  -2.5216  -2.5216  -2.3703

          k = 0.4494 0.2595 0.0000 ( 30403 PWs)   bands (ev):

   -20.9345 -20.7859 -20.7833 -20.5869 -20.4814 -20.4544 -20.3531 -20.3293
   -20.2086 -20.1101 -20.0722 -19.9732  -8.6028  -8.5503  -8.5110  -8.4115
    -8.3714  -8.3056  -8.1792  -8.0516  -7.9823  -7.8033  -7.7757  -7.7458
    -6.4674  -6.0693  -6.0291  -5.7890  -5.4131  -5.1440  -4.7744  -4.7481
    -4.4585  -4.2495  -4.1374  -3.8171  -2.9912  -2.9835  -2.9578  -2.8879
    -2.7935  -2.7294  -2.6818  -2.6592  -2.6014  -2.5564  -2.4935  -2.3994

          k = 0.2996 0.1730 0.3111 ( 30428 PWs)   bands (ev):

   -20.9611 -20.7382 -20.6653 -20.6339 -20.5431 -20.5041 -20.3338 -20.3153
   -20.2280 -20.1399 -20.0741 -19.9428  -8.6034  -8.5369  -8.4874  -8.4234
    -8.4064  -8.2902  -8.0952  -7.9679  -7.9044  -7.8861  -7.7901  -7.7815
    -6.5829  -5.9946  -5.8904  -5.6657  -5.5871  -5.1546  -4.8808  -4.7301
    -4.6200  -4.2129  -4.1179  -3.7318  -3.1029  -3.0295  -2.9705  -2.8776
    -2.8060  -2.7618  -2.6955  -2.6564  -2.5871  -2.5386  -2.4706  -2.4270

          k = 0.4494-0.2595-0.9332 ( 30380 PWs)   bands (ev):

   -20.8466 -20.8410 -20.7212 -20.6529 -20.5405 -20.4790 -20.3641 -20.2928
   -20.1577 -20.1298 -20.0715 -19.9819  -8.5774  -8.5536  -8.5088  -8.4229
    -8.3855  -8.2564  -8.1494  -7.9990  -7.9146  -7.8859  -7.7860  -7.7687
    -6.2919  -6.1783  -5.9097  -5.8477  -5.5477  -5.1645  -4.9359  -4.6773
    -4.3658  -4.2390  -4.1461  -3.7966  -3.1060  -3.0418  -3.0050  -2.8829
    -2.8413  -2.7989  -2.6567  -2.6208  -2.6094  -2.5515  -2.4714  -2.3874

          k = 0.2996-0.3460-0.6221 ( 30416 PWs)   bands (ev):

   -20.8256 -20.7752 -20.7083 -20.6902 -20.5758 -20.5619 -20.3030 -20.2829
   -20.1557 -20.1385 -20.0717 -19.9968  -8.5827  -8.5045  -8.4800  -8.4543
    -8.4297  -8.2635  -8.0219  -8.0042  -7.8824  -7.8719  -7.7947  -7.7896
    -6.2328  -6.1693  -5.9331  -5.8998  -5.4711  -5.4368  -4.7466  -4.6861
    -4.3708  -4.3312  -4.0992  -3.8280  -3.1921  -3.0562  -3.0078  -2.9108
    -2.8683  -2.7584  -2.6957  -2.6574  -2.6407  -2.5067  -2.4819  -2.3743

          k = 0.0000 0.0000-1.8663 ( 30414 PWs)   bands (ev):

   -20.7930 -20.7274 -20.7088 -20.7088 -20.6251 -20.6251 -20.2414 -20.2414
   -20.1831 -20.1831 -20.0690 -19.9791  -8.5948  -8.4735  -8.4735  -8.4518
    -8.4518  -8.2261  -8.0455  -8.0350  -7.8501  -7.8501  -7.8343  -7.8343
    -6.1320  -6.1172  -5.7727  -5.7727  -5.7205  -5.7205  -4.5565  -4.5565
    -4.4609  -4.4609  -4.0638  -3.7783  -3.2079  -3.0512  -3.0512  -2.9439
    -2.9439  -2.7165  -2.6988  -2.6069  -2.6069  -2.5181  -2.5181  -2.3409

          k = 0.2996-0.3460 0.3111 ( 30407 PWs)   bands (ev):

   -20.9179 -20.7837 -20.6839 -20.6439 -20.5644 -20.5125 -20.3183 -20.2509
   -20.2123 -20.1278 -20.0816 -19.9824  -8.5935  -8.5383  -8.4761  -8.4517
    -8.3756  -8.3235  -8.1000  -8.0265  -7.9504  -7.8023  -7.7745  -7.7458
    -6.4726  -6.0994  -5.9775  -5.7138  -5.5687  -5.2089  -4.8649  -4.5526
    -4.4434  -4.3057  -4.1675  -3.8298  -3.0913  -3.0051  -2.9672  -2.8719
    -2.7904  -2.7529  -2.7043  -2.6851  -2.6412  -2.5300  -2.4736  -2.4011

     highest occupied level (ev):    -2.3409

!    total energy              =    -413.94230686 Ry
     estimated scf accuracy    <       0.00000003 Ry

     The total energy is the sum of the following terms:
     one-electron contribution =    -298.71757130 Ry
     hartree contribution      =     183.18711268 Ry
     xc contribution           =    -101.63730516 Ry
     ewald contribution        =    -196.77454308 Ry

     convergence has been achieved in   5 iterations

     Forces acting on atoms (cartesian axes, Ry/au):

     atom    1 type  2   force =    -0.00350161   -0.00264590    0.00146759
     atom    2 type  2   force =     0.00350161    0.00264590   -0.00146759
     atom    3 type  2   force =     0.00404223   -0.00170953    0.00146759
     atom    4 type  2   force =    -0.00404223    0.00170953   -0.00146759
     atom    5 type  2   force =    -0.00054062    0.00435543    0.00146759
     atom    6 type  2   force =     0.00054062   -0.00435543   -0.00146759
     atom    7 type  2   force =     0.00605764   -0.00822262    0.00240063
     atom    8 type  2   force =    -0.00605764    0.00822262   -0.00240063
     atom    9 type  2   force =     0.00409218    0.00935738    0.00240063
     atom   10 type  2   force =    -0.00409218   -0.00935738   -0.00240063
     atom   11 type  2   force =    -0.01014982   -0.00113476    0.00240063
     atom   12 type  2   force =     0.01014982    0.00113476   -0.00240063
     atom   13 type  1   force =    -0.01004653    0.00757360   -0.02321256
     atom   14 type  1   force =     0.01004653   -0.00757360    0.02321256
     atom   15 type  1   force =    -0.00153567   -0.01248735   -0.02321256
     atom   16 type  1   force =     0.00153567    0.01248735    0.02321256
     atom   17 type  1   force =     0.01158220    0.00491375   -0.02321256
     atom   18 type  1   force =    -0.01158220   -0.00491375    0.02321256
     atom   19 type  1   force =     0.01407908   -0.00896238    0.01588142
     atom   20 type  1   force =    -0.01407908    0.00896238   -0.01588142
     atom   21 type  1   force =     0.00072210    0.01667403    0.01588142
     atom   22 type  1   force =    -0.00072210   -0.01667403   -0.01588142
     atom   23 type  1   force =    -0.01480119   -0.00771166    0.01588142
     atom   24 type  1   force =     0.01480119    0.00771166   -0.01588142
     atom   25 type  1   force =     0.00488606    0.01433123    0.00409115
     atom   26 type  1   force =    -0.00488606   -0.01433123   -0.00409115
     atom   27 type  1   force =    -0.01485424   -0.00293417    0.00409115
     atom   28 type  1   force =     0.01485424    0.00293417   -0.00409115
     atom   29 type  1   force =     0.00996818   -0.01139707    0.00409115
     atom   30 type  1   force =    -0.00996818    0.01139707   -0.00409115
     atom   31 type  1   force =     0.00153593   -0.01157080   -0.00328593
     atom   32 type  1   force =    -0.00153593    0.01157080    0.00328593
     atom   33 type  1   force =     0.00925264    0.00711555   -0.00328593
     atom   34 type  1   force =    -0.00925264   -0.00711555    0.00328593
     atom   35 type  1   force =    -0.01078857    0.00445525   -0.00328593
     atom   36 type  1   force =     0.01078857   -0.00445525    0.00328593

     Total force =     0.102540     Total SCF correction =     0.000096


     Computing stress (Cartesian axis) and pressure

          total   stress  (Ry/bohr**3)                   (kbar)     P=        6.20
   0.00001107  -0.00000000  -0.00000000            1.63       -0.00       -0.00
   0.00000000   0.00001107   0.00000000            0.00        1.63        0.00
   0.00000000   0.00000000   0.00010430            0.00        0.00       15.34

     Energy error            =      3.0E-02 Ry
     Gradient error          =      2.3E-02 Ry/Bohr

     number of scf cycles    =   3
     number of bfgs steps    =   2

     energy             old  =    -413.9124904693 Ry
     energy             new  =    -413.9423068571 Ry

     CASE: energy            _new < energy            _old

     new trust radius        =       0.0703796929 bohr
     new conv_thr            =       0.0000001000 Ry


ATOMIC_POSITIONS (crystal)
O                0.2731638278        0.0350791358        0.8602279995
O                0.7268361722        0.9649208752        0.1397719705
O                0.8602279995        0.2731638278        0.0350791358
O                0.1397719705        0.7268361722        0.9649208752
O                0.0350791358        0.8602279995        0.2731638278
O                0.9649208752        0.1397719705        0.7268361722
O                0.4723454877        0.7479535194        0.3305963384
O                0.5276545123        0.2520464806        0.6694036316
O                0.3305963384        0.4723454877        0.7479535194
O                0.6694036316        0.5276545123        0.2520464806
O                0.7479535194        0.3305963384        0.4723454877
O                0.2520464806        0.6694036316        0.5276545123
H                0.1496691901        0.0533761384        0.7968469697
H                0.8503307959        0.9466238536        0.2031530303
H                0.7968469697        0.1496691901        0.0533761384
H                0.2031530303        0.8503307959        0.9466238536
H                0.0533761384        0.7968469697        0.1496691901
H                0.9466238536        0.2031530303        0.8503307959
H                0.4256472708        0.2053427783        1.0015141443
H                0.5743527292        0.7946572367       -0.0015141653
H                1.0015141443        0.4256472708        0.2053427783
H               -0.0015141653        0.5743527292        0.7946572367
H                0.2053427783        1.0015141443        0.4256472708
H                0.7946572367       -0.0015141653        0.5743527292
H                0.7208209233        0.4052373011        0.3980327192
H                0.2791790767        0.5947626689        0.6019673108
H                0.3980327192        0.7208209233        0.4052373011
H                0.6019673108        0.2791790767        0.5947626689
H                0.4052373011        0.3980327192        0.7208209233
H                0.5947626689        0.6019673108        0.2791790767
H                0.7419857594        0.2027157546        0.3652976581
H                0.2580142406        0.7972842304        0.6347023419
H                0.3652976581        0.7419857594        0.2027157546
H                0.6347023419        0.2580142406        0.7972842304
H                0.2027157546        0.3652976581        0.7419857594
H                0.7972842304        0.6347023419        0.2580142406



     Writing config-only to output data dir ./iceII/iceII.save/ :
     XML data file
     NEW-OLD atomic charge density approx. for the potential

     negative rho (up, down):  2.875E-07 0.000E+00

     total cpu time spent up to now is       29.0 secs

     per-process dynamical memory:    26.0 Mb

     Self-consistent Calculation

     iteration #  1     ecut=    90.00 Ry     beta= 0.70
     Davidson diagonalization with overlap
     ethr =  1.00E-06,  avg # of iterations =  7.0

     total cpu time spent up to now is       30.6 secs

     total energy              =    -413.95496906 Ry
     estimated scf accuracy    <       0.00186123 Ry

     iteration #  2     ecut=    90.00 Ry     beta= 0.70
     Davidson diagonalization with overlap
     ethr =  1.94E-06,  avg # of iterations =  2.9

     total cpu time spent up to now is       31.5 secs

     total energy              =    -413.95537024 Ry
     estimated scf accuracy    <       0.00035139 Ry

     iteration #  3     ecut=    90.00 Ry     beta= 0.70
     Davidson diagonalization with overlap
     ethr =  3.66E-07,  avg # of iterations =  2.9

     total cpu time spent up to now is       32.3 secs

     total energy              =    -413.95543987 Ry
     estimated scf accuracy    <       0.00001996 Ry

     iteration #  4     ecut=    90.00 Ry     beta= 0.70
     Davidson diagonalization with overlap
     ethr =  2.08E-08,  avg # of iterations =  2.1

     total cpu time spent up to now is       33.1 secs

     total energy              =    -413.95544192 Ry
     estimated scf accuracy    <       0.00000339 Ry

     iteration #  5     ecut=    90.00 Ry     beta= 0.70
     Davidson diagonalization with overlap
     ethr =  3.53E-09,  avg # of iterations =  2.0

     total cpu time spent up to now is       33.9 secs

     total energy              =    -413.95544240 Ry
     estimated scf accuracy    <       0.00000011 Ry

     iteration #  6     ecut=    90.00 Ry     beta= 0.70
     Davidson diagonalization with overlap
     ethr =  1.12E-10,  avg # of iterations =  4.9

     total cpu time spent up to now is       35.1 secs

     total energy              =    -413.95544245 Ry
     estimated scf accuracy    <       0.00000013 Ry

     iteration #  7     ecut=    90.00 Ry     beta= 0.70
     Davidson diagonalization with overlap
     ethr =  1.12E-10,  avg # of iterations =  2.7

     total cpu time spent up to now is       35.9 secs

     End of self-consistent calculation

          k = 0.0000 0.0000 0.0000 ( 30469 PWs)   bands (ev):

   -20.9627 -20.5567 -20.5567 -20.3148 -20.3148 -20.2942 -20.2942 -20.2821
   -20.2697 -19.9713 -19.9713 -19.7116  -8.6309  -8.4723  -8.4723  -8.4609
    -8.3936  -8.3936  -8.0573  -8.0484  -8.0484  -8.0188  -8.0188  -7.8963
    -6.8097  -5.6695  -5.6695  -5.2332  -5.2332  -5.0047  -5.0047  -4.7802
    -4.6926  -4.0720  -4.0720  -3.4246  -2.9681  -2.9681  -2.9084  -2.7426
    -2.7426  -2.7133  -2.6006  -2.5429  -2.5429  -2.5308  -2.4915  -2.4915

          k =-0.1498-0.0865 0.3111 ( 30442 PWs)   bands (ev):

   -20.8966 -20.5873 -20.5584 -20.4410 -20.4090 -20.3640 -20.2339 -20.1865
   -20.1455 -19.9791 -19.9452 -19.7602  -8.5936  -8.5175  -8.4787  -8.4405
    -8.3887  -8.3388  -8.1120  -8.0800  -8.0390  -7.9633  -7.9422  -7.9214
    -6.6156  -5.8556  -5.7133  -5.4758  -5.3434  -5.0172  -4.7947  -4.7199
    -4.5236  -4.0740  -4.0016  -3.5675  -3.0521  -2.9986  -2.9106  -2.8000
    -2.7836  -2.7262  -2.6849  -2.5825  -2.5601  -2.4975  -2.4679  -2.4371

          k = 0.2996 0.1730-0.6221 ( 30432 PWs)   bands (ev):

   -20.7593 -20.6846 -20.5840 -20.5026 -20.4480 -20.4045 -20.2012 -20.1427
   -20.0529 -19.9683 -19.9167 -19.8483  -8.5376  -8.5365  -8.4733  -8.4573
    -8.3877  -8.3162  -8.1114  -8.0926  -8.0264  -7.9997  -7.8948  -7.8774
    -6.2108  -6.1595  -5.7694  -5.7516  -5.2706  -5.2469  -4.6419  -4.5880
    -4.1907  -4.1680  -3.9615  -3.8075  -3.1230  -3.0175  -2.9200  -2.8436
    -2.8095  -2.7744  -2.6827  -2.6650  -2.5899  -2.4903  -2.4190  -2.3961

          k =-0.1498 0.0865 0.6221 ( 30396 PWs)   bands (ev):

   -20.7727 -20.6354 -20.6166 -20.5005 -20.4581 -20.4123 -20.1857 -20.1237
   -20.0720 -19.9605 -19.9374 -19.8383  -8.5454  -8.5107  -8.5081  -8.4415
    -8.3868  -8.3116  -8.1077  -8.0988  -8.0624  -7.9363  -7.9146  -7.8868
    -6.2688  -6.0118  -5.9716  -5.5505  -5.4019  -5.2317  -4.6612  -4.4350
    -4.3723  -4.0643  -3.9868  -3.8160  -3.1066  -3.0421  -2.9148  -2.8343
    -2.7988  -2.7589  -2.7262  -2.6301  -2.6057  -2.4879  -2.4371  -2.3819

          k = 0.2996 0.3460-0.3111 ( 30407 PWs)   bands (ev):

   -20.8099 -20.6670 -20.6040 -20.4919 -20.4239 -20.3825 -20.1987 -20.1313
   -20.0531 -20.0025 -19.9165 -19.8251  -8.5617  -8.5414  -8.4561  -8.4360
    -8.3997  -8.3122  -8.1895  -8.1629  -8.0887  -7.9232  -7.9020  -7.8670
    -6.3446  -5.9914  -5.7965  -5.6253  -5.5241  -5.0415  -4.5842  -4.4782
    -4.4273  -4.1260  -3.9824  -3.7364  -3.0453  -2.9989  -2.9246  -2.8533
    -2.7637  -2.7016  -2.6866  -2.6570  -2.5986  -2.5319  -2.4270  -2.3640

          k = 0.1498 0.2595 0.0000 ( 30375 PWs)   bands (ev):

   -20.9138 -20.6243 -20.5742 -20.4165 -20.3801 -20.3013 -20.2665 -20.1889
   -20.1546 -19.9829 -19.9456 -19.7509  -8.6098  -8.5131  -8.4791  -8.4298
    -8.3713  -8.3657  -8.2021  -8.1320  -8.0527  -7.9755  -7.9309  -7.8834
    -6.6346  -5.7471  -5.7178  -5.5116  -5.4186  -4.9205  -4.7641  -4.6180
    -4.5795  -4.1165  -4.0567  -3.5047  -2.9693  -2.9526  -2.9329  -2.8130
    -2.7453  -2.7062  -2.6278  -2.5996  -2.5823  -2.5360  -2.4339  -2.4229

          k = 0.2996-0.1730-1.2442 ( 30362 PWs)   bands (ev):

   -20.7907 -20.7734 -20.5893 -20.4598 -20.3889 -20.3153 -20.2292 -20.1657
   -20.0778 -20.0038 -19.8738 -19.8312  -8.5746  -8.5425  -8.4726  -8.4322
    -8.3432  -8.3252  -8.2874  -8.2022  -8.0717  -7.9631  -7.8979  -7.8641
    -6.2114  -6.2056  -5.7328  -5.6957  -5.3062  -5.0283  -4.6076  -4.5326
    -4.3514  -4.2617  -3.8899  -3.7135  -2.9803  -2.9420  -2.9321  -2.8612
    -2.7503  -2.6684  -2.6652  -2.6500  -2.5998  -2.5467  -2.3999  -2.3826

          k = 0.0000 0.0000 0.9332 ( 30441 PWs)   bands (ev):

   -20.7039 -20.7039 -20.6953 -20.5129 -20.4110 -20.4110 -20.1226 -20.1226
   -20.0653 -19.9312 -19.9312 -19.8953  -8.5422  -8.5422  -8.4773  -8.4071
    -8.3783  -8.3783  -8.2141  -8.1428  -8.1428  -7.8755  -7.8755  -7.8513
    -6.1079  -6.1079  -5.9306  -5.7938  -5.2975  -5.2975  -4.3851  -4.3851
    -4.2752  -4.0647  -4.0647  -3.9866  -3.0034  -3.0034  -2.9011  -2.8790
    -2.7259  -2.7259  -2.6806  -2.6579  -2.6579  -2.4817  -2.4817  -2.3396

          k = 0.4494 0.2595 0.0000 ( 30403 PWs)   bands (ev):

   -20.8236 -20.6814 -20.6710 -20.4447 -20.3672 -20.3230 -20.2204 -20.1859
   -20.0902 -19.9585 -19.9159 -19.8171  -8.5744  -8.5285  -8.4985  -8.4038
    -8.3790  -8.3093  -8.2924  -8.1673  -8.1173  -7.9299  -7.8946  -7.8807
    -6.3409  -5.9279  -5.9063  -5.6989  -5.2726  -4.9950  -4.6589  -4.6181
    -4.2980  -4.1226  -4.0139  -3.6847  -2.9613  -2.9551  -2.9334  -2.8655
    -2.7641  -2.6979  -2.6543  -2.6349  -2.5686  -2.5247  -2.4601  -2.3584

          k = 0.2996 0.1730 0.3111 ( 30428 PWs)   bands (ev):

   -20.8517 -20.6324 -20.5677 -20.4954 -20.4052 -20.3666 -20.2145 -20.1871
   -20.0796 -20.0005 -19.9185 -19.7869  -8.5768  -8.5260  -8.4826  -8.4117
    -8.4070  -8.2950  -8.2015  -8.0742  -8.0306  -8.0208  -7.9282  -7.8987
    -6.4632  -5.8833  -5.7718  -5.5343  -5.4588  -5.0387  -4.6930  -4.6079
    -4.5045  -4.0720  -3.9900  -3.6065  -3.0639  -2.9985  -2.9417  -2.8476
    -2.7824  -2.7315  -2.6648  -2.6267  -2.5685  -2.5107  -2.4449  -2.3803

          k = 0.4494-0.2595-0.9332 ( 30380 PWs)   bands (ev):

   -20.7431 -20.7286 -20.6152 -20.5141 -20.4100 -20.3490 -20.2325 -20.1621
   -20.0118 -19.9990 -19.9233 -19.8168  -8.5511  -8.5324  -8.4927  -8.4128
    -8.3797  -8.2682  -8.2479  -8.1290  -8.0542  -8.0087  -7.9178  -7.8931
    -6.1834  -6.0536  -5.8019  -5.7319  -5.3859  -5.0083  -4.8030  -4.5708
    -4.2418  -4.0847  -4.0214  -3.6703  -3.0640  -3.0075  -2.9713  -2.8538
    -2.8102  -2.7757  -2.6346  -2.5963  -2.5887  -2.5276  -2.4421  -2.3395

          k = 0.2996-0.3460-0.6221 ( 30416 PWs)   bands (ev):

   -20.7328 -20.6537 -20.6053 -20.5555 -20.4426 -20.4219 -20.1823 -20.1515
   -20.0124 -19.9837 -19.9458 -19.8254  -8.5586  -8.4902  -8.4638  -8.4498
    -8.4233  -8.2579  -8.1383  -8.1297  -8.0137  -7.9944  -7.9214  -7.9135
    -6.1143  -6.0673  -5.8179  -5.7744  -5.3471  -5.3033  -4.5858  -4.5277
    -4.2459  -4.2224  -3.9307  -3.7444  -3.1323  -3.0228  -2.9755  -2.8796
    -2.8324  -2.7446  -2.6646  -2.6356  -2.6170  -2.4858  -2.4566  -2.3295

          k = 0.0000 0.0000-1.8663 ( 30414 PWs)   bands (ev):

   -20.7022 -20.6142 -20.6142 -20.5749 -20.4785 -20.4785 -20.1269 -20.1269
   -20.0165 -20.0165 -19.9563 -19.8064  -8.5635  -8.4567  -8.4567  -8.4398
    -8.4398  -8.2136  -8.1650  -8.1638  -7.9859  -7.9859  -7.9626  -7.9626
    -6.1042  -5.9451  -5.6960  -5.6960  -5.5182  -5.5182  -4.4019  -4.4019
    -4.3646  -4.3646  -3.8894  -3.6962  -3.1293  -3.0172  -3.0172  -2.9132
    -2.9132  -2.7118  -2.6634  -2.5887  -2.5887  -2.4944  -2.4944  -2.2922

          k = 0.2996-0.3460 0.3111 ( 30407 PWs)   bands (ev):

   -20.8084 -20.6796 -20.5842 -20.4977 -20.4282 -20.3852 -20.1823 -20.1390
   -20.0733 -19.9757 -19.9286 -19.8240  -8.5674  -8.5275  -8.4701  -8.4359
    -8.3810  -8.3260  -8.2139  -8.1414  -8.0826  -7.9183  -7.9051  -7.8711
    -6.3451  -6.0009  -5.8081  -5.5928  -5.5005  -5.0908  -4.6722  -4.3946
    -4.3313  -4.1580  -4.0522  -3.7121  -3.0527  -2.9734  -2.9394  -2.8502
    -2.7603  -2.7173  -2.6793  -2.6519  -2.6238  -2.5053  -2.4289  -2.3692

     highest occupied level (ev):    -2.2922

!    total energy              =    -413.95544247 Ry
     estimated scf accuracy    <          5.9E-09 Ry

     The total energy is the sum of the following terms:
     one-electron contribution =    -296.48213282 Ry
     hartree contribution      =     182.17453196 Ry
     xc contribution           =    -101.48137364 Ry
     ewald contribution        =    -198.16646797 Ry

     convergence has been achieved in   7 iterations

     Forces acting on atoms (cartesian axes, Ry/au):

     atom    1 type  2   force =    -0.00112096   -0.00518847   -0.00203099
     atom    2 type  2   force =     0.00112096    0.00518847    0.00203099
     atom    3 type  2   force =     0.00505382    0.00162346   -0.00203099
     atom    4 type  2   force =    -0.00505382   -0.00162346    0.00203099
     atom    5 type  2   force =    -0.00393287    0.00356501   -0.00203099
     atom    6 type  2   force =     0.00393287   -0.00356501    0.00203099
     atom    7 type  2   force =    -0.00377324   -0.00446852   -0.00268622
     atom    8 type  2   force =     0.00377324    0.00446852    0.00268622
     atom    9 type  2   force =     0.00575647   -0.00103346   -0.00268622
     atom   10 type  2   force =    -0.00575647    0.00103346    0.00268622
     atom   11 type  2   force =    -0.00198323    0.00550198   -0.00268622
     atom   12 type  2   force =     0.00198323   -0.00550198    0.00268622
     atom   13 type  1   force =    -0.00468916   -0.00106913   -0.00191361
     atom   14 type  1   force =     0.00468916    0.00106913    0.00191361
     atom   15 type  1   force =     0.00327048   -0.00352636   -0.00191361
     atom   16 type  1   force =    -0.00327048    0.00352636    0.00191361
     atom   17 type  1   force =     0.00141868    0.00459550   -0.00191361
     atom   18 type  1   force =    -0.00141868   -0.00459550    0.00191361
     atom   19 type  1   force =     0.00599054    0.00324911   -0.00062523
     atom   20 type  1   force =    -0.00599054   -0.00324911    0.00062523
     atom   21 type  1   force =    -0.00580909    0.00356341   -0.00062523
     atom   22 type  1   force =     0.00580909   -0.00356341    0.00062523
     atom   23 type  1   force =    -0.00018146   -0.00681252   -0.00062523
     atom   24 type  1   force =     0.00018146    0.00681252    0.00062523
     atom   25 type  1   force =     0.00187567   -0.00290477    0.00366180
     atom   26 type  1   force =    -0.00187567    0.00290477   -0.00366180
     atom   27 type  1   force =     0.00157777    0.00307676    0.00366180
     atom   28 type  1   force =    -0.00157777   -0.00307676   -0.00366180
     atom   29 type  1   force =    -0.00345344   -0.00017200    0.00366180
     atom   30 type  1   force =     0.00345344    0.00017200   -0.00366180
     atom   31 type  1   force =    -0.00314510   -0.00187455    0.00109756
     atom   32 type  1   force =     0.00314510    0.00187455   -0.00109756
     atom   33 type  1   force =     0.00319596   -0.00178646    0.00109756
     atom   34 type  1   force =    -0.00319596    0.00178646   -0.00109756
     atom   35 type  1   force =    -0.00005086    0.00366101    0.00109756
     atom   36 type  1   force =     0.00005086   -0.00366101   -0.00109756

     Total force =     0.033525     Total SCF correction =     0.000137


     Computing stress (Cartesian axis) and pressure

          total   stress  (Ry/bohr**3)                   (kbar)     P=      -10.59
  -0.00009784   0.00000000   0.00000000          -14.39        0.00        0.00
  -0.00000000  -0.00009784  -0.00000000           -0.00      -14.39       -0.00
   0.00000000  -0.00000000  -0.00002038            0.00       -0.00       -3.00

     Energy error            =      1.3E-02 Ry
     Gradient error          =      6.8E-03 Ry/Bohr

     number of scf cycles    =   4
     number of bfgs steps    =   3

     energy             old  =    -413.9423068571 Ry
     energy             new  =    -413.9554424697 Ry

     CASE: energy            _new < energy            _old

     new trust radius        =       0.0113013984 bohr
     new conv_thr            =       0.0000000681 Ry


ATOMIC_POSITIONS (crystal)
O                0.2730688316        0.0349299404        0.8604238196
O                0.7269311684        0.9650700706        0.1395761504
O                0.8604238196        0.2730688316        0.0349299404
O                0.1395761504        0.7269311684        0.9650700706
O                0.0349299404        0.8604238196        0.2730688316
O                0.9650700706        0.1395761504        0.7269311684
O                0.4719658266        0.7474087398        0.3306039175
O                0.5280341734        0.2525912602        0.6693960525
O                0.3306039175        0.4719658266        0.7474087398
O                0.6693960525        0.5280341734        0.2525912602
O                0.7474087398        0.3306039175        0.4719658266
O                0.2525912602        0.6693960525        0.5280341734
H                0.1486666870        0.0525746610        0.7963930272
H                0.8513332990        0.9474253310        0.2036069728
H                0.7963930272        0.1486666870        0.0525746610
H                0.2036069728        0.8513332990        0.9474253310
H                0.0525746610        0.7963930272        0.1486666870
H                0.9474253310        0.2036069728        0.8513332990
H                0.4263061449        0.2055419637        1.0013164129
H                0.5736938551        0.7944580513       -0.0013164339
H                1.0013164129        0.4263061449        0.2055419637
H               -0.0013164339        0.5736938551        0.7944580513
H                0.2055419637        1.0013164129        0.4263061449
H                0.7944580513       -0.0013164339        0.5736938551
H                0.7213810014        0.4056414381        0.3984163066
H                0.2786189986        0.5943585319        0.6015837234
H                0.3984163066        0.7213810014        0.4056414381
H                0.6015837234        0.2786189986        0.5943585319
H                0.4056414381        0.3984163066        0.7213810014
H                0.5943585319        0.6015837234        0.2786189986
H                0.7420270237        0.2026326565        0.3657181186
H                0.2579729763        0.7973673285        0.6342818814
H                0.3657181186        0.7420270237        0.2026326565
H                0.6342818814        0.2579729763        0.7973673285
H                0.2026326565        0.3657181186        0.7420270237
H                0.7973673285        0.6342818814        0.2579729763



     Writing config-only to output data dir ./iceII/iceII.save/ :
     XML data file
     NEW-OLD atomic charge density approx. for the potential

     total cpu time spent up to now is       37.1 secs

     per-process dynamical memory:    27.4 Mb

     Self-consistent Calculation

     iteration #  1     ecut=    90.00 Ry     beta= 0.70
     Davidson diagonalization with overlap
     ethr =  1.00E-06,  avg # of iterations =  4.0

     total cpu time spent up to now is       38.2 secs

     total energy              =    -413.95641639 Ry
     estimated scf accuracy    <       0.00015145 Ry

     iteration #  2     ecut=    90.00 Ry     beta= 0.70
     Davidson diagonalization with overlap
     ethr =  1.58E-07,  avg # of iterations =  2.0

     total cpu time spent up to now is       39.1 secs

     total energy              =    -413.95644801 Ry
     estimated scf accuracy    <       0.00001755 Ry

     iteration #  3     ecut=    90.00 Ry     beta= 0.70
     Davidson diagonalization with overlap
     ethr =  1.83E-08,  avg # of iterations =  2.0

     total cpu time spent up to now is       40.0 secs

     total energy              =    -413.95645204 Ry
     estimated scf accuracy    <       0.00000155 Ry

     iteration #  4     ecut=    90.00 Ry     beta= 0.70
     Davidson diagonalization with overlap
     ethr =  1.62E-09,  avg # of iterations =  2.0

     total cpu time spent up to now is       40.8 secs

     total energy              =    -413.95645231 Ry
     estimated scf accuracy    <       0.00000010 Ry

     iteration #  5     ecut=    90.00 Ry     beta= 0.70
     Davidson diagonalization with overlap
     ethr =  1.03E-10,  avg # of iterations =  2.5

     total cpu time spent up to now is       41.6 secs

     End of self-consistent calculation

          k = 0.0000 0.0000 0.0000 ( 30469 PWs)   bands (ev):

   -20.9586 -20.5600 -20.5600 -20.3144 -20.3144 -20.2708 -20.2708 -20.2681
   -20.2618 -19.9474 -19.9474 -19.6928  -8.6416  -8.4969  -8.4776  -8.4776
    -8.4092  -8.4092  -8.0625  -8.0625  -8.0432  -8.0170  -8.0170  -7.8970
    -6.7941  -5.6563  -5.6563  -5.2223  -5.2223  -4.9873  -4.9873  -4.7753
    -4.6756  -4.0574  -4.0574  -3.4095  -2.9686  -2.9686  -2.9068  -2.7423
    -2.7423  -2.7116  -2.6030  -2.5403  -2.5403  -2.5295  -2.4921  -2.4921

          k =-0.1498-0.0865 0.3111 ( 30442 PWs)   bands (ev):

   -20.8939 -20.5902 -20.5653 -20.4279 -20.3873 -20.3537 -20.2245 -20.1780
   -20.1371 -19.9545 -19.9217 -19.7393  -8.6064  -8.5287  -8.4928  -8.4688
    -8.4046  -8.3565  -8.1139  -8.0796  -8.0354  -7.9627  -7.9414  -7.9219
    -6.6013  -5.8428  -5.7013  -5.4637  -5.3308  -5.0081  -4.7758  -4.7075
    -4.5059  -4.0606  -3.9890  -3.5527  -3.0505  -2.9983  -2.9098  -2.8005
    -2.7839  -2.7270  -2.6831  -2.5812  -2.5605  -2.4990  -2.4642  -2.4382

          k = 0.2996 0.1730-0.6221 ( 30432 PWs)   bands (ev):

   -20.7658 -20.6785 -20.5889 -20.4865 -20.4332 -20.3876 -20.1971 -20.1338
   -20.0470 -19.9464 -19.8970 -19.8181  -8.5510  -8.5477  -8.4995  -8.4759
    -8.4093  -8.3367  -8.1058  -8.0897  -8.0222  -7.9967  -7.8925  -7.8791
    -6.2003  -6.1434  -5.7565  -5.7409  -5.2594  -5.2372  -4.6208  -4.5736
    -4.1751  -4.1521  -3.9509  -3.7964  -3.1194  -3.0164  -2.9192  -2.8465
    -2.8113  -2.7673  -2.6850  -2.6696  -2.5854  -2.4928  -2.4153  -2.3980

          k =-0.1498 0.0865 0.6221 ( 30396 PWs)   bands (ev):

   -20.7765 -20.6364 -20.6159 -20.4867 -20.4400 -20.3982 -20.1784 -20.1205
   -20.0630 -19.9395 -19.9148 -19.8101  -8.5562  -8.5273  -8.5239  -8.4709
    -8.4042  -8.3337  -8.1024  -8.0952  -8.0563  -7.9371  -7.9125  -7.8862
    -6.2551  -5.9990  -5.9596  -5.5393  -5.3909  -5.2205  -4.6447  -4.4163
    -4.3553  -4.0530  -3.9737  -3.8047  -3.1038  -3.0397  -2.9142  -2.8382
    -2.7940  -2.7617  -2.7260  -2.6323  -2.6035  -2.4883  -2.4360  -2.3818

          k = 0.2996 0.3460-0.3111 ( 30407 PWs)   bands (ev):

[...]
O                0.2492484099        0.6641242634        0.5158564816
H                0.1436106622        0.0375426041        0.7947364797
H                0.8563893238        0.9624573879        0.2052635203
H                0.7947364797        0.1436106622        0.0375426041
H                0.2052635203        0.8563893238        0.9624573879
H                0.0375426041        0.7947364797        0.1436106622
H                0.9624573879        0.2052635203        0.8563893238
H                0.4214196468        0.1889828659        0.9875267158
H                0.5785803532        0.8110171491        0.0124732632
H                0.9875267158        0.4214196468        0.1889828659
H                0.0124732632        0.5785803532        0.8110171491
H                0.1889828659        0.9875267158        0.4214196468
H                0.8110171491        0.0124732632        0.5785803532
H                0.7291819924        0.4128331585        0.4111181593
H                0.2708180076        0.5871668115        0.5888818707
H                0.4111181593        0.7291819924        0.4128331585
H                0.5888818707        0.2708180076        0.5871668115
H                0.4128331585        0.4111181593        0.7291819924
H                0.5871668115        0.5888818707        0.2708180076
H                0.7456631670        0.2085590228        0.3776888814
H                0.2543368330        0.7914409622        0.6223111186
H                0.3776888814        0.7456631670        0.2085590228
H                0.6223111186        0.2543368330        0.7914409622
H                0.2085590228        0.3776888814        0.7456631670
H                0.7914409622        0.6223111186        0.2543368330



     Writing config-only to output data dir ./iceII/iceII.save/ :
     XML data file
     NEW-OLD atomic charge density approx. for the potential

     total cpu time spent up to now is      349.2 secs

     per-process dynamical memory:    31.6 Mb

     Self-consistent Calculation

     iteration #  1     ecut=    90.00 Ry     beta= 0.70
     Davidson diagonalization with overlap
     ethr =  1.00E-06,  avg # of iterations =  2.0

     Threshold (ethr) on eigenvalues was too large:
     Diagonalizing with lowered threshold

     Davidson diagonalization with overlap
     ethr =  4.22E-10,  avg # of iterations =  5.0

     total cpu time spent up to now is      351.2 secs

     total energy              =    -413.96429065 Ry
     estimated scf accuracy    <       0.00000067 Ry

     iteration #  2     ecut=    90.00 Ry     beta= 0.70
     Davidson diagonalization with overlap
     ethr =  7.01E-10,  avg # of iterations =  2.0

     total cpu time spent up to now is      352.0 secs

     total energy              =    -413.96429075 Ry
     estimated scf accuracy    <       0.00000004 Ry

     iteration #  3     ecut=    90.00 Ry     beta= 0.70
     Davidson diagonalization with overlap
     ethr =  4.46E-11,  avg # of iterations =  2.1

     total cpu time spent up to now is      352.8 secs

     total energy              =    -413.96429076 Ry
     estimated scf accuracy    <          8.3E-09 Ry

     iteration #  4     ecut=    90.00 Ry     beta= 0.70
     Davidson diagonalization with overlap
     ethr =  8.68E-12,  avg # of iterations =  2.0

     total cpu time spent up to now is      353.6 secs

     End of self-consistent calculation

          k = 0.0000 0.0000 0.0000 ( 30469 PWs)   bands (ev):

   -20.9507 -20.5384 -20.5384 -20.3146 -20.3135 -20.3135 -20.2759 -20.2759
   -20.2441 -19.9776 -19.9776 -19.6859  -8.5229  -8.4026  -8.3691  -8.3691
    -8.3167  -8.3167  -8.0230  -8.0230  -7.9951  -7.9951  -7.9765  -7.9399
    -6.7837  -5.7201  -5.7201  -5.2285  -5.2285  -4.9558  -4.9558  -4.9349
    -4.6894  -4.0741  -4.0741  -3.3459  -2.9421  -2.9421  -2.8569  -2.7524
    -2.7524  -2.6966  -2.6395  -2.6040  -2.6040  -2.5601  -2.5124  -2.5124

          k =-0.1498-0.0865 0.3111 ( 30442 PWs)   bands (ev):

   -20.8846 -20.5675 -20.5346 -20.4442 -20.4176 -20.3578 -20.2320 -20.1757
   -20.1262 -19.9855 -19.9483 -19.7382  -8.4907  -8.4218  -8.3909  -8.3720
    -8.3119  -8.2676  -8.0746  -8.0403  -8.0062  -7.9538  -7.9147  -7.9024
    -6.6066  -5.8865  -5.7476  -5.4826  -5.3336  -5.0870  -4.7760  -4.7254
    -4.5188  -4.0801  -4.0099  -3.4925  -3.0169  -2.9620  -2.8729  -2.8143
    -2.8006  -2.7419  -2.6886  -2.6016  -2.5918  -2.5499  -2.5014  -2.4973

          k = 0.2996 0.1730-0.6221 ( 30432 PWs)   bands (ev):

   -20.7375 -20.6843 -20.5582 -20.4993 -20.4486 -20.4070 -20.1911 -20.1393
   -20.0430 -19.9691 -19.9005 -19.8408  -8.4414  -8.4410  -8.3966  -8.3834
    -8.3187  -8.2460  -8.0701  -8.0513  -8.0139  -7.9630  -7.8632  -7.8491
    -6.2414  -6.1609  -5.7968  -5.7399  -5.3015  -5.2754  -4.6384  -4.6027
    -4.1817  -4.1515  -3.9757  -3.7438  -3.0839  -2.9789  -2.8836  -2.8815
    -2.8268  -2.7502  -2.7233  -2.6563  -2.6082  -2.5413  -2.4735  -2.4658

          k =-0.1498 0.0865 0.6221 ( 30396 PWs)   bands (ev):

   -20.7579 -20.6153 -20.6050 -20.4995 -20.4625 -20.4063 -20.1828 -20.1101
   -20.0640 -19.9561 -19.9337 -19.8255  -8.4451  -8.4215  -8.4167  -8.3887
    -8.3064  -8.2439  -8.0678  -8.0558  -8.0405  -7.9161  -7.8819  -7.8536
    -6.2882  -6.0215  -5.9777  -5.5640  -5.4433  -5.2462  -4.6731  -4.4340
    -4.3639  -4.0640  -3.9808  -3.7586  -3.0729  -2.9982  -2.8916  -2.8512
    -2.7979  -2.7849  -2.7357  -2.6324  -2.6168  -2.5453  -2.4912  -2.4486

          k = 0.2996 0.3460-0.3111 ( 30407 PWs)   bands (ev):

   -20.7944 -20.6470 -20.5855 -20.5047 -20.4284 -20.3700 -20.2035 -20.1174
   -20.0264 -20.0093 -19.9113 -19.8141  -8.4585  -8.4457  -8.3734  -8.3660
    -8.3161  -8.2531  -8.1302  -8.1103  -8.0476  -7.9131  -7.9034  -7.8581
    -6.3415  -6.0052  -5.8311  -5.6152  -5.5552  -5.0585  -4.6419  -4.4828
    -4.3974  -4.1001  -3.9826  -3.6922  -3.0145  -2.9559  -2.9012  -2.8391
    -2.7885  -2.7271  -2.6975  -2.6760  -2.6054  -2.5864  -2.4668  -2.4283

          k = 0.1498 0.2595 0.0000 ( 30375 PWs)   bands (ev):

   -20.9007 -20.6040 -20.5533 -20.4282 -20.3761 -20.3095 -20.2532 -20.1912
   -20.1236 -19.9856 -19.9499 -19.7302  -8.5007  -8.4207  -8.3793  -8.3615
    -8.2979  -8.2912  -8.1310  -8.0885  -8.0089  -7.9658  -7.9308  -7.9082
    -6.6171  -5.7775  -5.7481  -5.5088  -5.4474  -4.9176  -4.7970  -4.6541
    -4.5592  -4.1047  -4.0609  -3.4457  -2.9426  -2.9246  -2.8877  -2.8000
    -2.7548  -2.7213  -2.6633  -2.6454  -2.6130  -2.5696  -2.4702  -2.4586

          k = 0.2996-0.1730-1.2442 ( 30362 PWs)   bands (ev):

   -20.7734 -20.7579 -20.5650 -20.4778 -20.3762 -20.3362 -20.1951 -20.1850
   -20.0403 -20.0091 -19.8653 -19.8237  -8.4654  -8.4426  -8.3762  -8.3633
    -8.2752  -8.2675  -8.2006  -8.1427  -8.0266  -7.9595  -7.9176  -7.8811
    -6.2147  -6.1883  -5.7597  -5.7115  -5.3590  -5.0403  -4.6218  -4.5609
    -4.3496  -4.2140  -3.8758  -3.6926  -2.9433  -2.9135  -2.8967  -2.8366
    -2.7564  -2.7187  -2.7103  -2.6484  -2.6456  -2.5722  -2.4398  -2.4220

          k = 0.0000 0.0000 0.9332 ( 30441 PWs)   bands (ev):

   -20.6848 -20.6848 -20.6695 -20.5524 -20.3988 -20.3988 -20.1296 -20.1296
   -20.0171 -19.9257 -19.9257 -19.8952  -8.4446  -8.4446  -8.3981  -8.3493
    -8.2980  -8.2980  -8.1584  -8.0892  -8.0892  -7.8754  -7.8754  -7.8439
    -6.0926  -6.0926  -5.9912  -5.7962  -5.3302  -5.3302  -4.4150  -4.4150
    -4.2541  -4.0484  -4.0484  -3.9280  -2.9672  -2.9672  -2.8805  -2.8473
    -2.7633  -2.7633  -2.7030  -2.6598  -2.6598  -2.5271  -2.5271  -2.4064

          k = 0.4494 0.2595 0.0000 ( 30403 PWs)   bands (ev):

   -20.8082 -20.6622 -20.6504 -20.4740 -20.3498 -20.3147 -20.2269 -20.1918
   -20.0481 -19.9576 -19.9152 -19.8060  -8.4666  -8.4298  -8.4046  -8.3307
    -8.3052  -8.2512  -8.2153  -8.1108  -8.0636  -7.9361  -7.9062  -7.8975
    -6.3314  -5.9266  -5.8929  -5.7535  -5.3234  -5.0235  -4.6947  -4.5874
    -4.2686  -4.1178  -4.0135  -3.6549  -2.9329  -2.9134  -2.9032  -2.8294
    -2.7874  -2.7321  -2.6927  -2.6728  -2.6002  -2.5504  -2.4856  -2.4042

          k = 0.2996 0.1730 0.3111 ( 30428 PWs)   bands (ev):

   -20.8384 -20.6117 -20.5410 -20.5048 -20.4127 -20.3682 -20.2020 -20.1758
   -20.0751 -19.9906 -19.9205 -19.7711  -8.4731  -8.4270  -8.3970  -8.3388
    -8.3259  -8.2345  -8.1385  -8.0350  -8.0150  -7.9893  -7.9300  -7.8832
    -6.4602  -5.9010  -5.8180  -5.5213  -5.4769  -5.0688  -4.7115  -4.5782
    -4.5236  -4.0559  -3.9927  -3.5600  -3.0388  -2.9455  -2.9031  -2.8672
    -2.8086  -2.7362  -2.6727  -2.6580  -2.5922  -2.5582  -2.4897  -2.4278

          k = 0.4494-0.2595-0.9332 ( 30380 PWs)   bands (ev):

   -20.7262 -20.7106 -20.5906 -20.5323 -20.4128 -20.3423 -20.2329 -20.1486
   -20.0073 -19.9772 -19.9179 -19.8127  -8.4487  -8.4288  -8.4016  -8.3349
    -8.3067  -8.2005  -8.1883  -8.0867  -8.0229  -7.9942  -7.9215  -7.8902
    -6.2014  -6.0365  -5.8674  -5.7110  -5.4172  -5.0324  -4.8140  -4.5364
    -4.2687  -4.0380  -4.0112  -3.6665  -3.0427  -2.9583  -2.9269  -2.8740
    -2.8407  -2.7623  -2.6712  -2.6347  -2.5950  -2.5679  -2.4870  -2.3862

          k = 0.2996-0.3460-0.6221 ( 30416 PWs)   bands (ev):

   -20.7093 -20.6492 -20.5827 -20.5577 -20.4406 -20.4256 -20.1714 -20.1469
   -20.0066 -19.9830 -19.9213 -19.8239  -8.4519  -8.4045  -8.3823  -8.3709
    -8.3423  -8.2071  -8.0929  -8.0770  -8.0068  -7.9724  -7.8938  -7.8828
    -6.1469  -6.1001  -5.8249  -5.7691  -5.3494  -5.3101  -4.6127  -4.5484
    -4.2272  -4.1983  -3.9002  -3.7309  -3.1059  -2.9750  -2.9300  -2.9152
    -2.8465  -2.7774  -2.6632  -2.6364  -2.6258  -2.5402  -2.5205  -2.3870

          k = 0.0000 0.0000-1.8663 ( 30414 PWs)   bands (ev):

   -20.6785 -20.5964 -20.5821 -20.5821 -20.4913 -20.4913 -20.1066 -20.1066
   -20.0262 -20.0262 -19.9236 -19.8067  -8.4523  -8.3641  -8.3641  -8.3628
    -8.3628  -8.1853  -8.1156  -8.0946  -7.9862  -7.9862  -7.9279  -7.9279
    -6.1624  -5.9847  -5.6682  -5.6682  -5.5362  -5.5362  -4.4074  -4.4074
    -4.3538  -4.3538  -3.8389  -3.7100  -3.1011  -2.9639  -2.9639  -2.9520
    -2.9520  -2.7458  -2.6250  -2.5824  -2.5824  -2.5805  -2.5805  -2.3454

          k = 0.2996-0.3460 0.3111 ( 30407 PWs)   bands (ev):

   -20.7934 -20.6573 -20.5611 -20.5214 -20.4276 -20.3706 -20.1978 -20.1138
   -20.0624 -19.9649 -19.9287 -19.8128  -8.4669  -8.4285  -8.3864  -8.3563
    -8.3218  -8.2535  -8.1437  -8.0984  -8.0445  -7.9183  -7.8924  -7.8648
    -6.3433  -6.0063  -5.8500  -5.5783  -5.5342  -5.1124  -4.7079  -4.4034
    -4.3070  -4.1568  -4.0348  -3.6692  -3.0228  -2.9293  -2.9114  -2.8402
    -2.7901  -2.7320  -2.6959  -2.6758  -2.6356  -2.5530  -2.4714  -2.4292

     highest occupied level (ev):    -2.3454

!    total energy              =    -413.96429076 Ry
     estimated scf accuracy    <          3.0E-10 Ry

     The total energy is the sum of the following terms:
     one-electron contribution =    -295.20623116 Ry
     hartree contribution      =     181.57298339 Ry
     xc contribution           =    -101.47253374 Ry
     ewald contribution        =    -198.85850925 Ry

     convergence has been achieved in   4 iterations

     Forces acting on atoms (cartesian axes, Ry/au):

     atom    1 type  2   force =    -0.00006851    0.00007600    0.00008505
     atom    2 type  2   force =     0.00006851   -0.00007600   -0.00008505
     atom    3 type  2   force =    -0.00003157   -0.00009733    0.00008505
     atom    4 type  2   force =     0.00003157    0.00009733   -0.00008505
     atom    5 type  2   force =     0.00010007    0.00002133    0.00008505
     atom    6 type  2   force =    -0.00010007   -0.00002133   -0.00008505
     atom    7 type  2   force =     0.00006321   -0.00000904    0.00001753
     atom    8 type  2   force =    -0.00006321    0.00000904   -0.00001753
     atom    9 type  2   force =    -0.00002377    0.00005926    0.00001753
     atom   10 type  2   force =     0.00002377   -0.00005926   -0.00001753
     atom   11 type  2   force =    -0.00003944   -0.00005022    0.00001753
     atom   12 type  2   force =     0.00003944    0.00005022   -0.00001753
     atom   13 type  1   force =     0.00004659   -0.00017617    0.00008684
     atom   14 type  1   force =    -0.00004659    0.00017617   -0.00008684
     atom   15 type  1   force =     0.00012928    0.00012843    0.00008684
     atom   16 type  1   force =    -0.00012928   -0.00012843   -0.00008684
     atom   17 type  1   force =    -0.00017586    0.00004774    0.00008684
     atom   18 type  1   force =     0.00017586   -0.00004774   -0.00008684
     atom   19 type  1   force =    -0.00010287    0.00005518   -0.00010967
     atom   20 type  1   force =     0.00010287   -0.00005518    0.00010967
     atom   21 type  1   force =     0.00000364   -0.00011668   -0.00010967
     atom   22 type  1   force =    -0.00000364    0.00011668    0.00010967
     atom   23 type  1   force =     0.00009922    0.00006149   -0.00010967
     atom   24 type  1   force =    -0.00009922   -0.00006149    0.00010967
     atom   25 type  1   force =    -0.00000844    0.00003859   -0.00005564
     atom   26 type  1   force =     0.00000844   -0.00003859    0.00005564
     atom   27 type  1   force =    -0.00002920   -0.00002660   -0.00005564
     atom   28 type  1   force =     0.00002920    0.00002660    0.00005564
     atom   29 type  1   force =     0.00003764   -0.00001198   -0.00005564
     atom   30 type  1   force =    -0.00003764    0.00001198    0.00005564
     atom   31 type  1   force =    -0.00002860    0.00001065    0.00003958
     atom   32 type  1   force =     0.00002860   -0.00001065   -0.00003958
     atom   33 type  1   force =     0.00000507   -0.00003009    0.00003958
     atom   34 type  1   force =    -0.00000507    0.00003009   -0.00003958
     atom   35 type  1   force =     0.00002352    0.00001944    0.00003958
     atom   36 type  1   force =    -0.00002352   -0.00001944   -0.00003958

     Total force =     0.000758     Total SCF correction =     0.000028


     Computing stress (Cartesian axis) and pressure

          total   stress  (Ry/bohr**3)                   (kbar)     P=      -10.84
  -0.00008801   0.00000000  -0.00000000          -12.95        0.00       -0.00
  -0.00000000  -0.00008801  -0.00000000           -0.00      -12.95       -0.00
   0.00000000  -0.00000000  -0.00004503            0.00       -0.00       -6.62

     Energy error            =      1.3E-06 Ry
     Gradient error          =      1.8E-04 Ry/Bohr

     number of scf cycles    =  50
     number of bfgs steps    =  49

     energy             old  =    -413.9642894866 Ry
     energy             new  =    -413.9642907598 Ry

     CASE: energy            _new < energy            _old

     new trust radius        =       0.0011049312 bohr

     The maximum number of steps has been reached.

     End of BFGS Geometry Optimization

ATOMIC_POSITIONS (crystal)
O                0.2671032771        0.0180542259        0.8557259813
O                0.7328967229        0.9819457851        0.1442739887
O                0.8557259813        0.2671032771        0.0180542259
O                0.1442739887        0.7328967229        0.9819457851
O                0.0180542259        0.8557259813        0.2671032771
O                0.9819457851        0.1442739887        0.7328967229
O                0.4841512791        0.7507183106        0.3358630791
O                0.5158487209        0.2492816894        0.6641368909
O                0.3358630791        0.4841512791        0.7507183106
O                0.6641368909        0.5158487209        0.2492816894
O                0.7507183106        0.3358630791        0.4841512791
O                0.2492816894        0.6641368909        0.5158487209
H                0.1436229951        0.0374736929        0.7947360294
H                0.8563769909        0.9625262991        0.2052639706
H                0.7947360294        0.1436229951        0.0374736929
H                0.2052639706        0.8563769909        0.9625262991
H                0.0374736929        0.7947360294        0.1436229951
H                0.9625262991        0.2052639706        0.8563769909
H                0.4214391865        0.1890132512        0.9875796465
H                0.5785608135        0.8109867638        0.0124203325
H                0.9875796465        0.4214391865        0.1890132512
H                0.0124203325        0.5785608135        0.8109867638
H                0.1890132512        0.9875796465        0.4214391865
H                0.8109867638        0.0124203325        0.5785608135
H                0.7291194728        0.4127994884        0.4111059559
H                0.2708805272        0.5872004816        0.5888940741
H                0.4111059559        0.7291194728        0.4127994884
H                0.5888940741        0.2708805272        0.5872004816
H                0.4127994884        0.4111059559        0.7291194728
H                0.5872004816        0.5888940741        0.2708805272
H                0.7456629639        0.2085705205        0.3777124956
H                0.2543370361        0.7914294645        0.6222875044
H                0.3777124956        0.7456629639        0.2085705205
H                0.6222875044        0.2543370361        0.7914294645
H                0.2085705205        0.3777124956        0.7456629639
H                0.7914294645        0.6222875044        0.2543370361



     Writing config-only to output data dir ./iceII/iceII.save/ :
     XML data file
     NEW-OLD atomic charge density approx. for the potential

     Writing all to output data dir ./iceII/iceII.save/ :
     XML data file, charge density, pseudopotentials, collected wavefunctions

     init_run     :      0.94s CPU      1.00s WALL (       1 calls)
     electrons    :    291.85s CPU    296.90s WALL (      50 calls)
     update_pot   :      1.28s CPU      1.35s WALL (      50 calls)
     forces       :      6.59s CPU      6.61s WALL (      50 calls)
     stress       :     44.77s CPU     44.80s WALL (      50 calls)

     Called by init_run:
     wfcinit      :      0.35s CPU      0.36s WALL (       1 calls)
     potinit      :      0.04s CPU      0.05s WALL (       1 calls)
     hinit0       :      0.39s CPU      0.40s WALL (       1 calls)

     Called by electrons:
     c_bands      :    247.39s CPU    249.89s WALL (     328 calls)
     sum_band     :     35.28s CPU     35.57s WALL (     328 calls)
     v_of_rho     :      6.98s CPU      7.10s WALL (     345 calls)
     newd         :      1.20s CPU      1.22s WALL (     345 calls)
     mix_rho      :      0.86s CPU      0.88s WALL (     328 calls)

     Called by c_bands:
     init_us_2    :      4.46s CPU      4.64s WALL (    3028 calls)
     cegterg      :    239.51s CPU    241.16s WALL (    1312 calls)

     Called by *egterg:
     cdiaghg      :     18.01s CPU     18.05s WALL (    4597 calls)
     h_psi        :    180.69s CPU    182.10s WALL (    4933 calls)
     s_psi        :      7.92s CPU      7.98s WALL (    4933 calls)
     g_psi        :      0.51s CPU      0.52s WALL (    3617 calls)

     Called by h_psi:
     h_psi:calbec :     12.94s CPU     13.05s WALL (    4933 calls)
     vloc_psi     :    158.37s CPU    159.63s WALL (    4933 calls)
     add_vuspsi   :      8.07s CPU      8.10s WALL (    4933 calls)

     General routines
     calbec       :     18.99s CPU     19.12s WALL (    7245 calls)
     fft          :      4.82s CPU      4.92s WALL (    4279 calls)
     ffts         :      0.43s CPU      0.44s WALL (     328 calls)
     fftw         :    165.84s CPU    167.12s WALL (  447366 calls)
     davcio       :      0.00s CPU      0.00s WALL (       4 calls)

     Parallel routines

     PWSCF        :   5m49.18s CPU   5m55.42s WALL


   This run was terminated on:  19: 7:35  31Mar2026            

=------------------------------------------------------------------------------=
   JOB DONE.
=------------------------------------------------------------------------------=
