
     Program PWSCF v.7.3.1 starts on 21Mar2026 at 19:42:24 

     This program is part of the open-source Quantum ESPRESSO suite
     for quantum simulation of materials; please cite
         "P. Giannozzi et al., J. Phys.:Condens. Matter 21 395502 (2009);
         "P. Giannozzi et al., J. Phys.:Condens. Matter 29 465901 (2017);
         "P. Giannozzi et al., J. Chem. Phys. 152 154105 (2020);
          URL http://www.quantum-espresso.org", 
     in publications or presentations arising from this work. More details at
     http://www.quantum-espresso.org/quote

     Parallel version (MPI), running on   128 processors

     MPI processes distributed on     1 nodes
     242906 MiB available memory on the printing compute node when the environment starts

     Waiting for input...
     Reading input from standard input

     Current dimensions of program PWSCF are:
     Max number of different atomic species (ntypx) = 10
     Max number of k-points (npk) =  40000
     Max angular momentum in pseudopotentials (lmaxx) =  4

     K-points division:     npool     =       4
     R & G space division:  proc/nbgrp/npool/nimage =      32
     Subspace diagonalization in iterative solution of the eigenvalue problem:
     a serial algorithm will be used


     Parallelization info
     --------------------
     sticks:   dense  smooth     PW     G-vecs:    dense   smooth      PW
     Min         181     181     53                 7619     7619    1208
     Max         182     182     54                 7622     7622    1210
     Sum        5795    5795   1703               243877   243877   38689

     Using Slab Decomposition



     bravais-lattice index     =            5
     lattice parameter (alat)  =      14.8491  a.u.
     unit-cell volume          =    2115.3967 (a.u.)^3
     number of atoms/cell      =           36
     number of atomic types    =            2
     number of electrons       =        96.00
     number of Kohn-Sham states=           48
     kinetic-energy cutoff     =      90.0000  Ry
     charge density cutoff     =     360.0000  Ry
     scf convergence threshold =      1.0E-07
     mixing beta               =       0.7000
     number of iterations used =            8  plain     mixing
     Exchange-correlation=  SLA  PW   PBE  PBE
                           (   1   4   3   4   0   0   0)

     celldm(1)=  14.849089  celldm(2)=   0.000000  celldm(3)=   0.000000
     celldm(4)=  -0.392337  celldm(5)=   0.000000  celldm(6)=   0.000000

     crystal axes: (cart. coord. in units of alat)
               a(1) = (   0.834367  -0.481722   0.267909 )  
               a(2) = (   0.000000   0.963444   0.267909 )  
               a(3) = (  -0.834367  -0.481722   0.267909 )  

     reciprocal axes: (cart. coord. in units 2 pi/alat)
               b(1) = (  0.599257 -0.345981  1.244203 )  
               b(2) = (  0.000000  0.691962  1.244203 )  
               b(3) = ( -0.599257 -0.345981  1.244203 )  


     PseudoPot. # 1 for H  read from file:
     ./H.pbe-van_ak.UPF
     MD5 check sum: 077eb6d537518a38cb46c6de387227b7
     Pseudo is Ultrasoft, Zval =  1.0
     Generated by new atomic code, or converted to UPF format
     Using radial grid of  615 points,  1 beta functions with: 
                l(1) =   0
     Q(r) pseudized with  8 coefficients,  rinner =    0.800

     PseudoPot. # 2 for O  read from file:
     ./O.pbe-van_ak.UPF
     MD5 check sum: 78c19812648e8988a0fe644b0f25305e
     Pseudo is Ultrasoft, Zval =  6.0
     Generated by new atomic code, or converted to UPF format
     Using radial grid of  737 points,  4 beta functions with: 
                l(1) =   0
                l(2) =   0
                l(3) =   1
                l(4) =   1
     Q(r) pseudized with  8 coefficients,  rinner =    0.800   0.800   0.800


     atomic species   valence    mass     pseudopotential
     H                 1.00     1.00800     H ( 1.00)
     O                 6.00    16.00000     O ( 1.00)

      6 Sym. Ops., with inversion, found



   Cartesian axes

     site n.     atom                  positions (alat units)
         1        O      tau(   1) = (  -0.4847673  -0.5197781   0.3083633  )
         2        O      tau(   2) = (   0.4847673   0.5197782   0.4953638  )
         3        O      tau(   3) = (   0.6925247  -0.1599317   0.3083633  )
         4        O      tau(   4) = (  -0.6925248   0.1599317   0.4953638  )
         5        O      tau(   5) = (  -0.2077574   0.6797099   0.3083633  )
         6        O      tau(   6) = (   0.2077574  -0.6797099   0.4953638  )
         7        O      tau(   7) = (   0.1218176   0.3323883   0.4179381  )
         8        O      tau(   8) = (  -0.1218176  -0.3323883   0.3857890  )
         9        O      tau(   9) = (  -0.3487655  -0.0606970   0.4179381  )
        10        O      tau(  10) = (   0.3487655   0.0606970   0.3857890  )
        11        O      tau(  11) = (   0.2269479  -0.2716913   0.4179381  )
        12        O      tau(  12) = (  -0.2269479   0.2716912   0.3857890  )
        13        H      tau(  13) = (  -0.5381668  -0.4032014   0.2796970  )
        14        H      tau(  14) = (   0.5381668   0.4032014   0.5240301  )
        15        H      tau(  15) = (   0.6182661  -0.2644654   0.2796970  )
        16        H      tau(  16) = (  -0.6182661   0.2644654   0.5240301  )
        17        H      tau(  17) = (  -0.0800993   0.6676668   0.2796970  )
        18        H      tau(  18) = (   0.0800993  -0.6676668   0.5240301  )
        19        H      tau(  19) = (  -0.4872704  -0.4817221   0.4326731  )
        20        H      tau(  20) = (   0.4872704   0.4817221   0.3710540  )
        21        H      tau(  21) = (   0.6608188  -0.1811275   0.4326731  )
        22        H      tau(  22) = (  -0.6608188   0.1811275   0.3710540  )
        23        H      tau(  23) = (  -0.1735484   0.6628496   0.4326731  )
        24        H      tau(  24) = (   0.1735484  -0.6628496   0.3710540  )
        25        H      tau(  25) = (   0.2703349  -0.1502973   0.4058822  )
        26        H      tau(  26) = (  -0.2703350   0.1502973   0.3978449  )
        27        H      tau(  27) = (  -0.0050062   0.3092656   0.4058822  )
        28        H      tau(  28) = (   0.0050062  -0.3092656   0.3978449  )
        29        H      tau(  29) = (  -0.2653287  -0.1589683   0.4058822  )
        30        H      tau(  30) = (   0.2653287   0.1589683   0.3978449  )
        31        H      tau(  31) = (   0.3178939  -0.3347969   0.3493534  )
        32        H      tau(  32) = (  -0.3178939   0.3347969   0.4543737  )
        33        H      tau(  33) = (   0.1309957   0.4427026   0.3493534  )
        34        H      tau(  34) = (  -0.1309956  -0.4427026   0.4543737  )
        35        H      tau(  35) = (  -0.4488895  -0.1079057   0.3493534  )
        36        H      tau(  36) = (   0.4488895   0.1079057   0.4543737  )

     number of k points=    14
                       cart. coord. in units 2pi/alat
        k(    1) = (   0.0000000   0.0000000   0.0000000), wk =   0.0312500
        k(    2) = (  -0.1498141  -0.0864952   0.3110508), wk =   0.1875000
        k(    3) = (   0.2996283   0.1729905  -0.6221017), wk =   0.0937500
        k(    4) = (  -0.1498141   0.0864952   0.6221017), wk =   0.1875000
        k(    5) = (   0.2996283   0.3459809  -0.3110508), wk =   0.1875000
        k(    6) = (   0.1498141   0.2594857   0.0000000), wk =   0.1875000
        k(    7) = (   0.2996283  -0.1729905  -1.2442034), wk =   0.0937500
        k(    8) = (   0.0000000   0.0000000   0.9331525), wk =   0.0625000
        k(    9) = (   0.4494424   0.2594857   0.0000000), wk =   0.1875000
        k(   10) = (   0.2996283   0.1729905   0.3110508), wk =   0.1875000
        k(   11) = (   0.4494424  -0.2594857  -0.9331525), wk =   0.1875000
        k(   12) = (   0.2996283  -0.3459809  -0.6221017), wk =   0.1875000
        k(   13) = (   0.0000000   0.0000000  -1.8663050), wk =   0.0312500
        k(   14) = (   0.2996283  -0.3459809   0.3110508), wk =   0.1875000

     Dense  grid:   243877 G-vectors     FFT dimensions: (  90,  90,  90)

     Estimated max dynamical RAM per process >      15.87 MB

     Estimated total dynamical RAM >       1.81 GB

     Initial potential from superposition of free atoms

     starting charge      95.9998, renormalised to      96.0000
     Starting wfcs are   72 randomized atomic wfcs

     total cpu time spent up to now is        1.2 secs

     per-process dynamical memory:    19.9 Mb

     Self-consistent Calculation

     iteration #  1     ecut=    90.00 Ry     beta= 0.70
     Davidson diagonalization with overlap
     ethr =  1.00E-02,  avg # of iterations =  2.0

     total cpu time spent up to now is        2.1 secs

     total energy              =    -412.27452875 Ry
     estimated scf accuracy    <       3.70394680 Ry

     iteration #  2     ecut=    90.00 Ry     beta= 0.70
     Davidson diagonalization with overlap
     ethr =  3.86E-03,  avg # of iterations =  3.0

     total cpu time spent up to now is        3.1 secs

     total energy              =    -413.44144364 Ry
     estimated scf accuracy    <       2.44258201 Ry

     iteration #  3     ecut=    90.00 Ry     beta= 0.70
     Davidson diagonalization with overlap
     ethr =  2.54E-03,  avg # of iterations =  2.0

     total cpu time spent up to now is        4.0 secs

     total energy              =    -413.75111481 Ry
     estimated scf accuracy    <       0.10662795 Ry

     iteration #  4     ecut=    90.00 Ry     beta= 0.70
     Davidson diagonalization with overlap
     ethr =  1.11E-04,  avg # of iterations =  4.0

     negative rho (up, down):  6.938E-08 0.000E+00

     total cpu time spent up to now is        5.1 secs

     total energy              =    -413.83445937 Ry
     estimated scf accuracy    <       0.12514845 Ry

     iteration #  5     ecut=    90.00 Ry     beta= 0.70
     Davidson diagonalization with overlap
     ethr =  1.11E-04,  avg # of iterations =  2.0

     negative rho (up, down):  1.819E-07 0.000E+00

     total cpu time spent up to now is        5.8 secs

     total energy              =    -413.83802589 Ry
     estimated scf accuracy    <       0.02127611 Ry

     iteration #  6     ecut=    90.00 Ry     beta= 0.70
     Davidson diagonalization with overlap
     ethr =  2.22E-05,  avg # of iterations =  2.0

     negative rho (up, down):  3.142E-07 0.000E+00

     total cpu time spent up to now is        6.6 secs

     total energy              =    -413.83757839 Ry
     estimated scf accuracy    <       0.00681667 Ry

     iteration #  7     ecut=    90.00 Ry     beta= 0.70
     Davidson diagonalization with overlap
     ethr =  7.10E-06,  avg # of iterations =  3.0

     negative rho (up, down):  3.485E-07 0.000E+00

     total cpu time spent up to now is        7.5 secs

     total energy              =    -413.83925741 Ry
     estimated scf accuracy    <       0.00011449 Ry

     iteration #  8     ecut=    90.00 Ry     beta= 0.70
     Davidson diagonalization with overlap
     ethr =  1.19E-07,  avg # of iterations =  6.1

     negative rho (up, down):  3.233E-07 0.000E+00

     total cpu time spent up to now is        8.9 secs

     total energy              =    -413.83927203 Ry
     estimated scf accuracy    <       0.00097809 Ry

     iteration #  9     ecut=    90.00 Ry     beta= 0.70
     Davidson diagonalization with overlap
     ethr =  1.19E-07,  avg # of iterations =  4.0

     negative rho (up, down):  2.925E-07 0.000E+00

     total cpu time spent up to now is       10.0 secs

     total energy              =    -413.83929293 Ry
     estimated scf accuracy    <       0.00013309 Ry

     iteration # 10     ecut=    90.00 Ry     beta= 0.70
     Davidson diagonalization with overlap
     ethr =  1.19E-07,  avg # of iterations =  2.0

     negative rho (up, down):  2.915E-07 0.000E+00

     total cpu time spent up to now is       10.8 secs

     total energy              =    -413.83931672 Ry
     estimated scf accuracy    <       0.00000325 Ry

     iteration # 11     ecut=    90.00 Ry     beta= 0.70
     Davidson diagonalization with overlap
     ethr =  3.39E-09,  avg # of iterations =  4.1

     negative rho (up, down):  2.897E-07 0.000E+00

     total cpu time spent up to now is       11.8 secs

     total energy              =    -413.83931801 Ry
     estimated scf accuracy    <       0.00000024 Ry

     iteration # 12     ecut=    90.00 Ry     beta= 0.70
     Davidson diagonalization with overlap
     ethr =  2.50E-10,  avg # of iterations =  4.0

     negative rho (up, down):  2.906E-07 0.000E+00

     total cpu time spent up to now is       12.9 secs

     total energy              =    -413.83931815 Ry
     estimated scf accuracy    <       0.00000011 Ry

     iteration # 13     ecut=    90.00 Ry     beta= 0.70
     Davidson diagonalization with overlap
     ethr =  1.19E-10,  avg # of iterations =  2.0

     negative rho (up, down):  2.916E-07 0.000E+00

     total cpu time spent up to now is       13.6 secs

     End of self-consistent calculation

          k = 0.0000 0.0000 0.0000 ( 30523 PWs)   bands (ev):

   -20.8668 -20.4314 -20.4314 -20.2182 -20.2182 -20.1913 -20.1913 -20.1779
   -20.1742 -19.8871 -19.8871 -19.5886  -8.2452  -8.0510  -7.9922  -7.9922
    -7.9172  -7.9172  -7.4965  -7.3481  -7.3481  -7.1345  -7.1345  -7.0074
    -6.9429  -6.0784  -6.0784  -5.5078  -5.5078  -5.4273  -5.4273  -5.1384
    -4.9585  -4.3255  -4.3255  -3.6728  -2.9335  -2.9335  -2.8370  -2.7591
    -2.7133  -2.7133  -2.5753  -2.5753  -2.5604  -2.5410  -2.4945  -2.4945

          k =-0.1498-0.0865 0.3111 ( 30524 PWs)   bands (ev):

   -20.7963 -20.4704 -20.4200 -20.3557 -20.3323 -20.2620 -20.1250 -20.0838
   -20.0320 -19.8932 -19.8534 -19.6459  -8.1919  -8.1148  -8.0388  -7.9938
    -7.8989  -7.8380  -7.4926  -7.3170  -7.3046  -7.1688  -7.0466  -7.0106
    -6.8147  -6.2209  -6.0954  -5.8310  -5.5161  -5.3866  -5.2467  -5.0292
    -4.9738  -4.3164  -4.2561  -3.8038  -3.0450  -2.9749  -2.8602  -2.8030
    -2.7490  -2.7156  -2.6744  -2.6117  -2.5510  -2.5118  -2.4797  -2.4335

          k = 0.2996 0.1730-0.6221 ( 30498 PWs)   bands (ev):

   -20.6133 -20.6132 -20.4516 -20.4391 -20.3320 -20.3287 -20.0708 -20.0627
   -19.8991 -19.8973 -19.7928 -19.7758  -8.1691  -8.1123  -8.0290  -8.0093
    -7.9019  -7.8426  -7.4401  -7.3198  -7.2805  -7.1784  -6.9669  -6.9659
    -6.5805  -6.4430  -6.1487  -5.9898  -5.5179  -5.4371  -5.2442  -5.0894
    -4.5713  -4.4464  -4.1957  -3.9703  -3.1459  -2.9940  -2.8847  -2.8558
    -2.7862  -2.7672  -2.6795  -2.6227  -2.6024  -2.4754  -2.4652  -2.3890

          k =-0.1498 0.0865 0.6221 ( 30504 PWs)   bands (ev):

   -20.6535 -20.5237 -20.5150 -20.4017 -20.3801 -20.3173 -20.0770 -19.9995
   -19.9665 -19.8546 -19.8368 -19.7507  -8.1767  -8.0900  -8.0719  -7.9667
    -7.9199  -7.8295  -7.4453  -7.3549  -7.3050  -7.0794  -7.0141  -6.9618
    -6.5855  -6.3779  -6.2838  -5.8265  -5.6583  -5.4793  -5.1692  -4.9680
    -4.7674  -4.2821  -4.2593  -3.9826  -3.1241  -3.0355  -2.8733  -2.8286
    -2.7959  -2.7471  -2.7057  -2.6229  -2.5928  -2.4850  -2.4684  -2.3832

          k = 0.2996 0.3460-0.3111 ( 30496 PWs)   bands (ev):

   -20.7038 -20.5551 -20.4543 -20.4293 -20.3529 -20.2859 -20.0812 -19.9839
   -19.9741 -19.8910 -19.8317 -19.7263  -8.1832  -8.1590  -8.0100  -7.9879
    -7.9299  -7.8367  -7.4748  -7.4153  -7.2933  -7.0480  -7.0173  -6.9504
    -6.7083  -6.4144  -6.1811  -5.8456  -5.8082  -5.3205  -5.1376  -4.8815
    -4.6596  -4.4351  -4.2384  -3.9579  -3.0396  -2.9714  -2.8891  -2.8198
    -2.7685  -2.7186  -2.6586  -2.6508  -2.5696  -2.5292  -2.4713  -2.3716

          k = 0.1498 0.2595 0.0000 ( 30481 PWs)   bands (ev):

   -20.8158 -20.5017 -20.4490 -20.3248 -20.2978 -20.2199 -20.1449 -20.0760
   -20.0376 -19.8976 -19.8638 -19.6342  -8.2297  -8.1266  -8.0308  -7.9881
    -7.8732  -7.8672  -7.5441  -7.4087  -7.2269  -7.1383  -7.0749  -6.9683
    -6.9413  -6.2067  -6.0783  -5.8221  -5.7115  -5.2656  -5.1369  -5.0112
    -4.8335  -4.3935  -4.3023  -3.7649  -2.9346  -2.9158  -2.8724  -2.7867
    -2.7487  -2.7231  -2.6115  -2.5957  -2.5633  -2.5547  -2.4547  -2.4410

          k = 0.2996-0.1730-1.2442 ( 30466 PWs)   bands (ev):

   -20.6929 -20.6580 -20.4627 -20.3729 -20.2970 -20.2433 -20.0917 -20.0594
   -19.9500 -19.9308 -19.7595 -19.7442  -8.2094  -8.1725  -8.0429  -8.0078
    -7.8465  -7.8434  -7.5396  -7.4731  -7.2089  -7.1625  -6.9875  -6.9445
    -6.6460  -6.6026  -6.1473  -5.9287  -5.6212  -5.3852  -5.0173  -4.7652
    -4.6599  -4.5880  -4.1560  -3.9722  -2.9493  -2.9021  -2.8870  -2.8191
    -2.7504  -2.6960  -2.6745  -2.6044  -2.5944  -2.5512  -2.4213  -2.4069

          k = 0.0000 0.0000 0.9332 ( 30546 PWs)   bands (ev):

   -20.6013 -20.6013 -20.5256 -20.4842 -20.3148 -20.3148 -20.0092 -20.0092
   -19.8912 -19.8579 -19.8299 -19.8299  -8.1602  -8.1602  -8.0269  -7.9289
    -7.9289  -7.9157  -7.4832  -7.3842  -7.3842  -6.9583  -6.9583  -6.9219
    -6.5123  -6.5096  -6.5096  -5.8705  -5.5729  -5.5729  -4.9310  -4.7487
    -4.7487  -4.3023  -4.3023  -4.1340  -2.9844  -2.9844  -2.8653  -2.8087
    -2.7408  -2.7408  -2.6873  -2.6244  -2.6244  -2.5154  -2.5154  -2.3485

          k = 0.4494 0.2595 0.0000 ( 30485 PWs)   bands (ev):

   -20.7214 -20.5628 -20.5576 -20.3746 -20.2447 -20.2359 -20.1064 -20.0999
   -19.9507 -19.8622 -19.8301 -19.7161  -8.2041  -8.1617  -8.0966  -7.9463
    -7.8885  -7.8253  -7.5565  -7.4249  -7.2989  -7.0616  -7.0118  -6.9650
    -6.7466  -6.3798  -6.3043  -5.8818  -5.6374  -5.3792  -4.9405  -4.9016
    -4.7025  -4.4031  -4.2651  -3.9459  -2.9323  -2.9249  -2.8759  -2.8237
    -2.7660  -2.7096  -2.6422  -2.6202  -2.5714  -2.5290  -2.4713  -2.3890

          k = 0.2996 0.1730 0.3111 ( 30501 PWs)   bands (ev):

   -20.7487 -20.5132 -20.4292 -20.4153 -20.3317 -20.2768 -20.0947 -20.0657
   -19.9989 -19.8818 -19.8313 -19.6820  -8.2028  -8.1457  -8.0640  -7.9395
    -7.9355  -7.7895  -7.5093  -7.3848  -7.2094  -7.1378  -7.0935  -6.9987
    -6.7348  -6.2271  -6.0583  -5.9738  -5.7476  -5.4118  -5.1241  -4.9298
    -4.7717  -4.3834  -4.2459  -3.8469  -3.0575  -2.9827  -2.9101  -2.8568
    -2.7637  -2.7239  -2.6508  -2.6199  -2.5394  -2.4993  -2.4429  -2.4257

          k = 0.4494-0.2595-0.9332 ( 30472 PWs)   bands (ev):

   -20.6246 -20.6237 -20.4920 -20.4422 -20.3203 -20.2476 -20.1319 -20.0519
   -19.9163 -19.8642 -19.8162 -19.7377  -8.2308  -8.1339  -8.0941  -7.9468
    -7.9012  -7.7701  -7.5524  -7.3430  -7.2271  -7.1727  -7.0325  -7.0046
    -6.4828  -6.4442  -6.1320  -5.9844  -5.8016  -5.4975  -5.0834  -4.8089
    -4.5072  -4.4767  -4.2887  -3.9139  -3.0579  -3.0012  -2.9653  -2.8568
    -2.8227  -2.7390  -2.6027  -2.5813  -2.5521  -2.5123  -2.4447  -2.3913

          k = 0.2996-0.3460-0.6221 ( 30538 PWs)   bands (ev):

   -20.5819 -20.5786 -20.4814 -20.4727 -20.3499 -20.3486 -20.0549 -20.0488
   -19.9045 -19.8976 -19.7869 -19.7700  -8.2444  -8.0503  -8.0204  -8.0025
    -7.9678  -7.7742  -7.4716  -7.3518  -7.2070  -7.1613  -7.0127  -7.0075
    -6.4478  -6.3222  -6.1657  -6.0398  -5.7269  -5.6915  -5.0042  -4.9330
    -4.5153  -4.4723  -4.3008  -3.8981  -3.1759  -3.0151  -2.9634  -2.8949
    -2.8429  -2.7106  -2.6457  -2.6075  -2.5865  -2.4671  -2.4506  -2.3738

          k = 0.0000 0.0000-1.8663 ( 30462 PWs)   bands (ev):

   -20.5523 -20.5389 -20.4470 -20.4470 -20.4424 -20.4424 -19.9832 -19.9832
   -19.9538 -19.9538 -19.7722 -19.7588  -8.2907  -8.0154  -8.0154  -7.9933
    -7.9933  -7.7433  -7.5202  -7.3483  -7.1146  -7.1146  -7.0835  -7.0835
    -6.2801  -6.0979  -6.0505  -6.0505  -6.0365  -6.0365  -4.7913  -4.7913
    -4.5504  -4.5504  -4.3224  -3.8489  -3.2064  -3.0170  -3.0170  -2.9303
    -2.9303  -2.6581  -2.6403  -2.5474  -2.5474  -2.4798  -2.4798  -2.3495

          k = 0.2996-0.3460 0.3111 ( 30496 PWs)   bands (ev):

   -20.7037 -20.5547 -20.4587 -20.4267 -20.3501 -20.2867 -20.0820 -19.9965
   -19.9568 -19.9001 -19.8255 -19.7279  -8.1984  -8.1264  -8.0459  -7.9843
    -7.9015  -7.8442  -7.5202  -7.3852  -7.2692  -7.0848  -6.9827  -6.9706
    -6.7017  -6.3487  -6.2721  -5.8977  -5.6635  -5.3810  -5.2169  -4.7948
    -4.6395  -4.4222  -4.3050  -3.9376  -3.0470  -2.9441  -2.9053  -2.8166
    -2.7732  -2.7242  -2.6588  -2.6514  -2.5867  -2.4993  -2.4722  -2.3796

     highest occupied level (ev):    -2.3485

!    total energy              =    -413.83931814 Ry
     estimated scf accuracy    <       0.00000002 Ry

     The total energy is the sum of the following terms:
     one-electron contribution =    -294.54900417 Ry
     hartree contribution      =     181.26332023 Ry
     xc contribution           =    -101.00453305 Ry
     ewald contribution        =    -199.54910115 Ry

     convergence has been achieved in  13 iterations

     Forces acting on atoms (cartesian axes, Ry/au):

     atom    1 type  2   force =    -0.03979244    0.07803055    0.04038745
     atom    2 type  2   force =     0.03979244   -0.07803055   -0.04038745
     atom    3 type  2   force =    -0.04768022   -0.07347654    0.04038745
     atom    4 type  2   force =     0.04768022    0.07347654   -0.04038745
     atom    5 type  2   force =     0.08747266   -0.00455401    0.04038745
     atom    6 type  2   force =    -0.08747266    0.00455401   -0.04038745
     atom    7 type  2   force =    -0.04256967    0.03167228   -0.02890264
     atom    8 type  2   force =     0.04256967   -0.03167228    0.02890264
     atom    9 type  2   force =    -0.00614416   -0.05270256   -0.02890264
     atom   10 type  2   force =     0.00614416    0.05270256    0.02890264
     atom   11 type  2   force =     0.04871383    0.02103028   -0.02890264
     atom   12 type  2   force =    -0.04871383   -0.02103028    0.02890264
     atom   13 type  1   force =     0.00869157   -0.03754019   -0.04638715
     atom   14 type  1   force =    -0.00869157    0.03754019    0.04638715
     atom   15 type  1   force =     0.02816498    0.02629721   -0.04638715
     atom   16 type  1   force =    -0.02816498   -0.02629721    0.04638715
     atom   17 type  1   force =    -0.03685654    0.01124298   -0.04638715
     atom   18 type  1   force =     0.03685654   -0.01124298    0.04638715
     atom   19 type  1   force =     0.02902892   -0.04731225   -0.00416869
     atom   20 type  1   force =    -0.02902892    0.04731225    0.00416869
     atom   21 type  1   force =     0.02645915    0.04879590   -0.00416869
     atom   22 type  1   force =    -0.02645915   -0.04879590    0.00416869
     atom   23 type  1   force =    -0.05548807   -0.00148366   -0.00416869
     atom   24 type  1   force =     0.05548807    0.00148366    0.00416869
     atom   25 type  1   force =    -0.01771886   -0.01644495    0.01329053
     atom   26 type  1   force =     0.01771886    0.01644495   -0.01329053
     atom   27 type  1   force =     0.02310118   -0.00712251    0.01329053
     atom   28 type  1   force =    -0.02310118    0.00712251   -0.01329053
     atom   29 type  1   force =    -0.00538231    0.02356746    0.01329053
     atom   30 type  1   force =     0.00538231   -0.02356746   -0.01329053
     atom   31 type  1   force =    -0.03795940   -0.00132050    0.02349267
     atom   32 type  1   force =     0.03795940    0.00132050   -0.02349267
     atom   33 type  1   force =     0.02012329   -0.03221356    0.02349267
     atom   34 type  1   force =    -0.02012329    0.03221356   -0.02349267
     atom   35 type  1   force =     0.01783611    0.03353406    0.02349267
     atom   36 type  1   force =    -0.01783611   -0.03353406   -0.02349267

     Total force =     0.366972     Total SCF correction =     0.000171


     Computing stress (Cartesian axis) and pressure

          total   stress  (Ry/bohr**3)                   (kbar)     P=      -43.00
  -0.00037072  -0.00000000   0.00000000          -54.53       -0.00        0.00
   0.00000000  -0.00037072  -0.00000000            0.00      -54.53       -0.00
   0.00000000  -0.00000000  -0.00013544            0.00       -0.00      -19.92


     Writing all to output data dir ./iceII/iceII.save/ :
     XML data file, charge density, pseudopotentials, collected wavefunctions

     init_run     :      0.94s CPU      0.99s WALL (       1 calls)
     electrons    :     12.19s CPU     12.45s WALL (       1 calls)
     forces       :      0.12s CPU      0.14s WALL (       1 calls)
     stress       :      0.91s CPU      0.92s WALL (       1 calls)

     Called by init_run:
     wfcinit      :      0.35s CPU      0.36s WALL (       1 calls)
     potinit      :      0.04s CPU      0.05s WALL (       1 calls)
     hinit0       :      0.39s CPU      0.40s WALL (       1 calls)

     Called by electrons:
     c_bands      :     10.28s CPU     10.44s WALL (      13 calls)
     sum_band     :      1.40s CPU      1.42s WALL (      13 calls)
     v_of_rho     :      0.32s CPU      0.35s WALL (      14 calls)
     newd         :      0.11s CPU      0.12s WALL (      14 calls)
     mix_rho      :      0.05s CPU      0.05s WALL (      13 calls)

     Called by c_bands:
     init_us_2    :      0.17s CPU      0.18s WALL (     116 calls)
     cegterg      :      9.95s CPU     10.09s WALL (      52 calls)

     Called by *egterg:
     cdiaghg      :      0.81s CPU      0.82s WALL (     213 calls)
     h_psi        :      7.65s CPU      7.76s WALL (     217 calls)
     s_psi        :      0.33s CPU      0.34s WALL (     217 calls)
     g_psi        :      0.02s CPU      0.02s WALL (     161 calls)

     Called by h_psi:
     h_psi:calbec :      0.58s CPU      0.58s WALL (     217 calls)
     vloc_psi     :      6.68s CPU      6.78s WALL (     217 calls)
     add_vuspsi   :      0.34s CPU      0.35s WALL (     217 calls)

     General routines
     calbec       :      0.78s CPU      0.79s WALL (     289 calls)
     fft          :      0.58s CPU      0.62s WALL (     162 calls)
     ffts         :      0.02s CPU      0.02s WALL (      13 calls)
     fftw         :      6.92s CPU      7.02s WALL (   18978 calls)

     Parallel routines

     PWSCF        :     14.45s CPU     15.13s WALL


   This run was terminated on:  19:42:40  21Mar2026            

=------------------------------------------------------------------------------=
   JOB DONE.
=------------------------------------------------------------------------------=
