
     Program PWSCF v.7.3.1 starts on 23Mar2026 at 17:59:30 

     This program is part of the open-source Quantum ESPRESSO suite
     for quantum simulation of materials; please cite
         "P. Giannozzi et al., J. Phys.:Condens. Matter 21 395502 (2009);
         "P. Giannozzi et al., J. Phys.:Condens. Matter 29 465901 (2017);
         "P. Giannozzi et al., J. Chem. Phys. 152 154105 (2020);
          URL http://www.quantum-espresso.org", 
     in publications or presentations arising from this work. More details at
     http://www.quantum-espresso.org/quote

     Parallel version (MPI), running on   128 processors

     MPI processes distributed on     1 nodes
     242851 MiB available memory on the printing compute node when the environment starts

     Waiting for input...
     Reading input from standard input

     Current dimensions of program PWSCF are:
     Max number of different atomic species (ntypx) = 10
     Max number of k-points (npk) =  40000
     Max angular momentum in pseudopotentials (lmaxx) =  4

     K-points division:     npool     =       4
     R & G space division:  proc/nbgrp/npool/nimage =      32
     Subspace diagonalization in iterative solution of the eigenvalue problem:
     a serial algorithm will be used


     Parallelization info
     --------------------
     sticks:   dense  smooth     PW     G-vecs:    dense   smooth      PW
     Min         181     181     53                 7664     7664    1217
     Max         182     182     54                 7667     7667    1220
     Sum        5823    5823   1715               245317   245317   38983

     Using Slab Decomposition



     bravais-lattice index     =            5
     lattice parameter (alat)  =      14.8785  a.u.
     unit-cell volume          =    2127.9883 (a.u.)^3
     number of atoms/cell      =           36
     number of atomic types    =            2
     number of electrons       =        96.00
     number of Kohn-Sham states=           48
     kinetic-energy cutoff     =      90.0000  Ry
     charge density cutoff     =     360.0000  Ry
     scf convergence threshold =      1.0E-07
     mixing beta               =       0.7000
     number of iterations used =            8  plain     mixing
     Exchange-correlation=  SLA  PW   PBE  PBE
                           (   1   4   3   4   0   0   0)

     celldm(1)=  14.878493  celldm(2)=   0.000000  celldm(3)=   0.000000
     celldm(4)=  -0.392337  celldm(5)=   0.000000  celldm(6)=   0.000000

     crystal axes: (cart. coord. in units of alat)
               a(1) = (   0.834367  -0.481722   0.267909 )  
               a(2) = (   0.000000   0.963444   0.267909 )  
               a(3) = (  -0.834367  -0.481722   0.267909 )  

     reciprocal axes: (cart. coord. in units 2 pi/alat)
               b(1) = (  0.599257 -0.345981  1.244203 )  
               b(2) = (  0.000000  0.691962  1.244203 )  
               b(3) = ( -0.599257 -0.345981  1.244203 )  


     PseudoPot. # 1 for H  read from file:
     ./H.pbe-van_ak.UPF
     MD5 check sum: 077eb6d537518a38cb46c6de387227b7
     Pseudo is Ultrasoft, Zval =  1.0
     Generated by new atomic code, or converted to UPF format
     Using radial grid of  615 points,  1 beta functions with: 
                l(1) =   0
     Q(r) pseudized with  8 coefficients,  rinner =    0.800

     PseudoPot. # 2 for O  read from file:
     ./O.pbe-van_ak.UPF
     MD5 check sum: 78c19812648e8988a0fe644b0f25305e
     Pseudo is Ultrasoft, Zval =  6.0
     Generated by new atomic code, or converted to UPF format
     Using radial grid of  737 points,  4 beta functions with: 
                l(1) =   0
                l(2) =   0
                l(3) =   1
                l(4) =   1
     Q(r) pseudized with  8 coefficients,  rinner =    0.800   0.800   0.800


     atomic species   valence    mass     pseudopotential
     H                 1.00     1.00800     H ( 1.00)
     O                 6.00    16.00000     O ( 1.00)

      6 Sym. Ops., with inversion, found



   Cartesian axes

     site n.     atom                  positions (alat units)
         1        O      tau(   1) = (  -0.4910119  -0.5205722   0.3052394  )
         2        O      tau(   2) = (   0.4910119   0.5205722   0.4984877  )
         3        O      tau(   3) = (   0.6963347  -0.1649427   0.3052394  )
         4        O      tau(   4) = (  -0.6963347   0.1649427   0.4984877  )
         5        O      tau(   5) = (  -0.2053228   0.6855149   0.3052394  )
         6        O      tau(   6) = (   0.2053228  -0.6855149   0.4984877  )
         7        O      tau(   7) = (   0.1229870   0.3303028   0.4196306  )
         8        O      tau(   8) = (  -0.1229870  -0.3303028   0.3840965  )
         9        O      tau(   9) = (  -0.3475441  -0.0586415   0.4196306  )
        10        O      tau(  10) = (   0.3475441   0.0586415   0.3840965  )
        11        O      tau(  11) = (   0.2245571  -0.2716613   0.4196306  )
        12        O      tau(  12) = (  -0.2245571   0.2716612   0.3840965  )
        13        H      tau(  13) = (  -0.5446961  -0.4126715   0.2597134  )
        14        H      tau(  14) = (   0.5446961   0.4126715   0.5440137  )
        15        H      tau(  15) = (   0.6297321  -0.2653849   0.2597134  )
        16        H      tau(  16) = (  -0.6297321   0.2653849   0.5440137  )
        17        H      tau(  17) = (  -0.0850360   0.6780564   0.2597134  )
        18        H      tau(  18) = (   0.0850360  -0.6780564   0.5440137  )
        19        H      tau(  19) = (  -0.4726389  -0.4926041   0.4288765  )
        20        H      tau(  20) = (   0.4726389   0.4926042   0.3748506  )
        21        H      tau(  21) = (   0.6629272  -0.1630152   0.4288765  )
        22        H      tau(  22) = (  -0.6629272   0.1630152   0.3748506  )
        23        H      tau(  23) = (  -0.1902883   0.6556194   0.4288765  )
        24        H      tau(  24) = (   0.1902883  -0.6556194   0.3748506  )
        25        H      tau(  25) = (   0.2676988  -0.1507235   0.4151121  )
        26        H      tau(  26) = (  -0.2676988   0.1507234   0.3886151  )
        27        H      tau(  27) = (  -0.0033191   0.3071957   0.4151121  )
        28        H      tau(  28) = (   0.0033191  -0.3071957   0.3886151  )
        29        H      tau(  29) = (  -0.2643797  -0.1564722   0.4151121  )
        30        H      tau(  30) = (   0.2643797   0.1564723   0.3886151  )
        31        H      tau(  31) = (   0.3102941  -0.3416444   0.3555952  )
        32        H      tau(  32) = (  -0.3102941   0.3416444   0.4481319  )
        33        H      tau(  33) = (   0.1407257   0.4395448   0.3555952  )
        34        H      tau(  34) = (  -0.1407257  -0.4395448   0.4481319  )
        35        H      tau(  35) = (  -0.4510198  -0.0979003   0.3555952  )
        36        H      tau(  36) = (   0.4510198   0.0979003   0.4481319  )

     number of k points=    14
                       cart. coord. in units 2pi/alat
        k(    1) = (   0.0000000   0.0000000   0.0000000), wk =   0.0312500
        k(    2) = (  -0.1498141  -0.0864952   0.3110508), wk =   0.1875000
        k(    3) = (   0.2996283   0.1729905  -0.6221017), wk =   0.0937500
        k(    4) = (  -0.1498141   0.0864952   0.6221017), wk =   0.1875000
        k(    5) = (   0.2996283   0.3459809  -0.3110508), wk =   0.1875000
        k(    6) = (   0.1498141   0.2594857   0.0000000), wk =   0.1875000
        k(    7) = (   0.2996283  -0.1729905  -1.2442034), wk =   0.0937500
        k(    8) = (   0.0000000   0.0000000   0.9331525), wk =   0.0625000
        k(    9) = (   0.4494424   0.2594857   0.0000000), wk =   0.1875000
        k(   10) = (   0.2996283   0.1729905   0.3110508), wk =   0.1875000
        k(   11) = (   0.4494424  -0.2594857  -0.9331525), wk =   0.1875000
        k(   12) = (   0.2996283  -0.3459809  -0.6221017), wk =   0.1875000
        k(   13) = (   0.0000000   0.0000000  -1.8663050), wk =   0.0312500
        k(   14) = (   0.2996283  -0.3459809   0.3110508), wk =   0.1875000

     Dense  grid:   245317 G-vectors     FFT dimensions: (  90,  90,  90)

     Estimated max dynamical RAM per process >      15.94 MB

     Estimated total dynamical RAM >       1.82 GB

     Initial potential from superposition of free atoms

     starting charge      95.9998, renormalised to      96.0000
     Starting wfcs are   72 randomized atomic wfcs

     total cpu time spent up to now is        1.2 secs

     per-process dynamical memory:    19.9 Mb

     Self-consistent Calculation

     iteration #  1     ecut=    90.00 Ry     beta= 0.70
     Davidson diagonalization with overlap
     ethr =  1.00E-02,  avg # of iterations =  2.0

     total cpu time spent up to now is        2.0 secs

     total energy              =    -412.33357995 Ry
     estimated scf accuracy    <       3.87222606 Ry

     iteration #  2     ecut=    90.00 Ry     beta= 0.70
     Davidson diagonalization with overlap
     ethr =  4.03E-03,  avg # of iterations =  3.0

     total cpu time spent up to now is        3.1 secs

     total energy              =    -413.55478241 Ry
     estimated scf accuracy    <       2.46728945 Ry

     iteration #  3     ecut=    90.00 Ry     beta= 0.70
     Davidson diagonalization with overlap
     ethr =  2.57E-03,  avg # of iterations =  2.0

     total cpu time spent up to now is        3.9 secs

     total energy              =    -413.87036609 Ry
     estimated scf accuracy    <       0.10293727 Ry

     iteration #  4     ecut=    90.00 Ry     beta= 0.70
     Davidson diagonalization with overlap
     ethr =  1.07E-04,  avg # of iterations =  4.0

     negative rho (up, down):  7.718E-08 0.000E+00

     total cpu time spent up to now is        5.1 secs

     total energy              =    -413.95062468 Ry
     estimated scf accuracy    <       0.12639097 Ry

     iteration #  5     ecut=    90.00 Ry     beta= 0.70
     Davidson diagonalization with overlap
     ethr =  1.07E-04,  avg # of iterations =  2.0

     negative rho (up, down):  1.120E-07 0.000E+00

     total cpu time spent up to now is        5.8 secs

     total energy              =    -413.95469614 Ry
     estimated scf accuracy    <       0.01857913 Ry

     iteration #  6     ecut=    90.00 Ry     beta= 0.70
     Davidson diagonalization with overlap
     ethr =  1.94E-05,  avg # of iterations =  2.0

     negative rho (up, down):  1.478E-07 0.000E+00

     total cpu time spent up to now is        6.6 secs

     total energy              =    -413.95498882 Ry
     estimated scf accuracy    <       0.00388856 Ry

     iteration #  7     ecut=    90.00 Ry     beta= 0.70
     Davidson diagonalization with overlap
     ethr =  4.05E-06,  avg # of iterations =  3.0

     negative rho (up, down):  1.446E-07 0.000E+00

     total cpu time spent up to now is        7.6 secs

     total energy              =    -413.95751357 Ry
     estimated scf accuracy    <       0.00125775 Ry

     iteration #  8     ecut=    90.00 Ry     beta= 0.70
     Davidson diagonalization with overlap
     ethr =  1.31E-06,  avg # of iterations =  1.1

     negative rho (up, down):  1.275E-07 0.000E+00

     total cpu time spent up to now is        8.3 secs

     total energy              =    -413.95688606 Ry
     estimated scf accuracy    <       0.00164086 Ry

     iteration #  9     ecut=    90.00 Ry     beta= 0.70
     Davidson diagonalization with overlap
     ethr =  1.31E-06,  avg # of iterations =  2.0

     negative rho (up, down):  1.207E-07 0.000E+00

     total cpu time spent up to now is        9.0 secs

     total energy              =    -413.95693052 Ry
     estimated scf accuracy    <       0.00022786 Ry

     iteration # 10     ecut=    90.00 Ry     beta= 0.70
     Davidson diagonalization with overlap
     ethr =  2.37E-07,  avg # of iterations =  2.5

     negative rho (up, down):  1.204E-07 0.000E+00

     total cpu time spent up to now is        9.9 secs

     total energy              =    -413.95699634 Ry
     estimated scf accuracy    <       0.00000409 Ry

     iteration # 11     ecut=    90.00 Ry     beta= 0.70
     Davidson diagonalization with overlap
     ethr =  4.26E-09,  avg # of iterations =  5.0

     negative rho (up, down):  1.212E-07 0.000E+00

     total cpu time spent up to now is       11.1 secs

     total energy              =    -413.95700354 Ry
     estimated scf accuracy    <       0.00000549 Ry

     iteration # 12     ecut=    90.00 Ry     beta= 0.70
     Davidson diagonalization with overlap
     ethr =  4.26E-09,  avg # of iterations =  1.0

     negative rho (up, down):  1.227E-07 0.000E+00

     total cpu time spent up to now is       11.8 secs

     total energy              =    -413.95700269 Ry
     estimated scf accuracy    <       0.00000163 Ry

     iteration # 13     ecut=    90.00 Ry     beta= 0.70
     Davidson diagonalization with overlap
     ethr =  1.70E-09,  avg # of iterations =  3.0

     negative rho (up, down):  1.223E-07 0.000E+00

     total cpu time spent up to now is       12.7 secs

     total energy              =    -413.95700351 Ry
     estimated scf accuracy    <       0.00000070 Ry

     iteration # 14     ecut=    90.00 Ry     beta= 0.70
     Davidson diagonalization with overlap
     ethr =  7.24E-10,  avg # of iterations =  1.0

     negative rho (up, down):  1.221E-07 0.000E+00

     total cpu time spent up to now is       13.3 secs

     total energy              =    -413.95700347 Ry
     estimated scf accuracy    <       0.00000028 Ry

     iteration # 15     ecut=    90.00 Ry     beta= 0.70
     Davidson diagonalization with overlap
     ethr =  2.93E-10,  avg # of iterations =  1.6

     negative rho (up, down):  1.218E-07 0.000E+00

     total cpu time spent up to now is       14.0 secs

     End of self-consistent calculation

          k = 0.0000 0.0000 0.0000 ( 30703 PWs)   bands (ev):

   -20.8491 -20.4305 -20.4305 -20.2231 -20.2231 -20.2154 -20.1750 -20.1750
   -20.1483 -19.8844 -19.8844 -19.5903  -8.4481  -8.3324  -8.3088  -8.3088
    -8.2430  -8.2430  -7.9409  -7.9409  -7.9246  -7.9246  -7.9173  -7.8703
    -6.8048  -5.7361  -5.7361  -5.2261  -5.2261  -4.9717  -4.9717  -4.9266
    -4.6905  -4.0763  -4.0763  -3.3553  -2.9506  -2.9506  -2.8663  -2.7688
    -2.7688  -2.7102  -2.6461  -2.6309  -2.6309  -2.5637  -2.5227  -2.5227

          k =-0.1498-0.0865 0.3111 ( 30706 PWs)   bands (ev):

   -20.7825 -20.4620 -20.4231 -20.3532 -20.3209 -20.2586 -20.1356 -20.0818
   -20.0287 -19.8920 -19.8542 -19.6430  -8.4155  -8.3538  -8.3233  -8.3030
    -8.2399  -8.1983  -8.0015  -7.9662  -7.9373  -7.8836  -7.8470  -7.8290
    -6.6271  -5.9010  -5.7633  -5.4905  -5.3218  -5.0753  -4.8007  -4.7319
    -4.5320  -4.0804  -4.0115  -3.5015  -3.0254  -2.9711  -2.8854  -2.8307
    -2.8135  -2.7541  -2.6957  -2.6276  -2.6004  -2.5679  -2.5212  -2.5093

          k = 0.2996 0.1730-0.6221 ( 30702 PWs)   bands (ev):

   -20.6263 -20.5913 -20.4468 -20.4101 -20.3430 -20.3109 -20.0932 -20.0495
   -19.9429 -19.8764 -19.8033 -19.7483  -8.3716  -8.3662  -8.3231  -8.3118
    -8.2473  -8.1770  -8.0014  -7.9810  -7.9448  -7.8945  -7.7908  -7.7767
    -6.2710  -6.1728  -5.7957  -5.7551  -5.2930  -5.2566  -4.6660  -4.6220
    -4.1937  -4.1558  -3.9780  -3.7453  -3.0922  -2.9884  -2.8985  -2.8955
    -2.8372  -2.7629  -2.7356  -2.6626  -2.6335  -2.5552  -2.4921  -2.4877

          k =-0.1498 0.0865 0.6221 ( 30693 PWs)   bands (ev):

   -20.6527 -20.5126 -20.5040 -20.3965 -20.3684 -20.3064 -20.0879 -20.0128
   -19.9696 -19.8606 -19.8389 -19.7317  -8.3744  -8.3499  -8.3421  -8.3160
    -8.2359  -8.1725  -7.9989  -7.9854  -7.9768  -7.8421  -7.8103  -7.7828
    -6.3132  -6.0343  -5.9924  -5.5674  -5.4298  -5.2355  -4.6959  -4.4542
    -4.3768  -4.0651  -3.9844  -3.7621  -3.0812  -3.0090  -2.9019  -2.8649
    -2.8108  -2.7974  -2.7479  -2.6431  -2.6357  -2.5633  -2.5098  -2.4694

          k = 0.2996 0.3460-0.3111 ( 30683 PWs)   bands (ev):

   -20.6911 -20.5411 -20.4799 -20.4091 -20.3363 -20.2706 -20.1064 -20.0168
   -19.9292 -19.9168 -19.8173 -19.7205  -8.3862  -8.3760  -8.3035  -8.2957
    -8.2426  -8.1851  -8.0660  -8.0407  -7.9805  -7.8407  -7.8294  -7.7835
    -6.3557  -6.0233  -5.8420  -5.6069  -5.5711  -5.0499  -4.6513  -4.5045
    -4.3960  -4.1029  -3.9875  -3.7006  -3.0218  -2.9674  -2.9120  -2.8487
    -2.8067  -2.7418  -2.7108  -2.6893  -2.6156  -2.6032  -2.4906  -2.4428

          k = 0.1498 0.2595 0.0000 ( 30681 PWs)   bands (ev):

   -20.7988 -20.4963 -20.4459 -20.3349 -20.2831 -20.2159 -20.1532 -20.0901
   -20.0251 -19.8926 -19.8575 -19.6351  -8.4273  -8.3531  -8.3156  -8.2932
    -8.2287  -8.2210  -8.0618  -8.0152  -7.9452  -7.8871  -7.8609  -7.8331
    -6.6331  -5.7963  -5.7443  -5.5149  -5.4722  -4.9144  -4.7924  -4.6540
    -4.5727  -4.1045  -4.0667  -3.4548  -2.9509  -2.9319  -2.9003  -2.8140
    -2.7735  -2.7387  -2.6772  -2.6599  -2.6231  -2.5819  -2.4864  -2.4729

          k = 0.2996-0.1730-1.2442 ( 30636 PWs)   bands (ev):

   -20.6729 -20.6509 -20.4570 -20.3852 -20.2783 -20.2469 -20.0896 -20.0872
   -19.9390 -19.9198 -19.7694 -19.7319  -8.3960  -8.3711  -8.3092  -8.2929
    -8.2053  -8.2031  -8.1365  -8.0698  -7.9653  -7.8794  -7.8467  -7.8040
    -6.2173  -6.2001  -5.7819  -5.7114  -5.3833  -5.0379  -4.6195  -4.5532
    -4.3623  -4.2125  -3.8843  -3.7047  -2.9540  -2.9223  -2.9048  -2.8458
    -2.7789  -2.7360  -2.7253  -2.6585  -2.6559  -2.5857  -2.4549  -2.4407

          k = 0.0000 0.0000 0.9332 ( 30705 PWs)   bands (ev):

   -20.5833 -20.5833 -20.5509 -20.4698 -20.3004 -20.3004 -20.0314 -20.0314
   -19.9156 -19.8314 -19.8314 -19.8060  -8.3743  -8.3743  -8.3236  -8.2721
    -8.2306  -8.2306  -8.0983  -8.0230  -8.0230  -7.7994  -7.7994  -7.7688
    -6.1059  -6.1059  -6.0300  -5.7739  -5.3320  -5.3320  -4.4185  -4.4185
    -4.2747  -4.0540  -4.0540  -3.9328  -2.9763  -2.9763  -2.8855  -2.8542
    -2.7814  -2.7814  -2.7237  -2.6685  -2.6685  -2.5502  -2.5502  -2.4186

          k = 0.4494 0.2595 0.0000 ( 30650 PWs)   bands (ev):

   -20.7055 -20.5537 -20.5474 -20.3845 -20.2499 -20.2195 -20.1285 -20.0935
   -19.9461 -19.8644 -19.8225 -19.7126  -8.3953  -8.3610  -8.3352  -8.2628
    -8.2376  -8.1787  -8.1523  -8.0431  -7.9988  -7.8603  -7.8312  -7.8219
    -6.3409  -5.9318  -5.8968  -5.7719  -5.3450  -5.0299  -4.6871  -4.5799
    -4.2738  -4.1225  -4.0228  -3.6659  -2.9411  -2.9244  -2.9124  -2.8405
    -2.8037  -2.7486  -2.7071  -2.6836  -2.6169  -2.5633  -2.4997  -2.4221

          k = 0.2996 0.1730 0.3111 ( 30685 PWs)   bands (ev):

   -20.7357 -20.5038 -20.4331 -20.4103 -20.3218 -20.2696 -20.1064 -20.0731
   -19.9848 -19.8927 -19.8270 -19.6768  -8.3994  -8.3602  -8.3282  -8.2711
    -8.2511  -8.1653  -8.0680  -7.9662  -7.9392  -7.9211  -7.8636  -7.8096
    -6.4747  -5.8988  -5.8375  -5.5322  -5.4888  -5.0596  -4.7231  -4.5807
    -4.5348  -4.0552  -4.0001  -3.5681  -3.0463  -2.9571  -2.9160  -2.8817
    -2.8226  -2.7496  -2.6897  -2.6701  -2.6013  -2.5727  -2.5005  -2.4551

          k = 0.4494-0.2595-0.9332 ( 30665 PWs)   bands (ev):

   -20.6178 -20.6092 -20.4842 -20.4408 -20.3180 -20.2419 -20.1384 -20.0483
   -19.9158 -19.8768 -19.8226 -19.7207  -8.3796  -8.3582  -8.3331  -8.2633
    -8.2341  -8.1334  -8.1172  -8.0197  -7.9555  -7.9204  -7.8526  -7.8174
    -6.1988  -6.0478  -5.8849  -5.7113  -5.4412  -5.0419  -4.8131  -4.5307
    -4.2773  -4.0412  -4.0196  -3.6754  -3.0494  -2.9720  -2.9399  -2.8877
    -2.8568  -2.7725  -2.6843  -2.6511  -2.6054  -2.5790  -2.4992  -2.4143

          k = 0.2996-0.3460-0.6221 ( 30696 PWs)   bands (ev):

   -20.5957 -20.5564 -20.4746 -20.4626 -20.3419 -20.3299 -20.0732 -20.0522
   -19.9111 -19.8897 -19.8222 -19.7319  -8.3835  -8.3307  -8.3096  -8.2987
    -8.2719  -8.1325  -8.0255  -8.0079  -7.9379  -7.9033  -7.8236  -7.8134
    -6.1502  -6.1192  -5.8347  -5.7805  -5.3474  -5.3104  -4.6256  -4.5612
    -4.2333  -4.2039  -3.9119  -3.7306  -3.1129  -2.9874  -2.9446  -2.9292
    -2.8604  -2.7859  -2.6755  -2.6544  -2.6413  -2.5517  -2.5326  -2.4158

          k = 0.0000 0.0000-1.8663 ( 30600 PWs)   bands (ev):

   -20.5609 -20.5131 -20.4711 -20.4711 -20.4022 -20.4022 -20.0042 -20.0042
   -19.9369 -19.9369 -19.8234 -19.7146  -8.3858  -8.2914  -8.2914  -8.2910
    -8.2910  -8.1019  -8.0494  -8.0302  -7.9154  -7.9154  -7.8621  -7.8621
    -6.1540  -6.0003  -5.6649  -5.6649  -5.5619  -5.5619  -4.4052  -4.4052
    -4.3655  -4.3655  -3.8543  -3.7086  -3.1076  -2.9791  -2.9791  -2.9661
    -2.9661  -2.7486  -2.6511  -2.5962  -2.5962  -2.5893  -2.5893  -2.3750

          k = 0.2996-0.3460 0.3111 ( 30683 PWs)   bands (ev):

   -20.6904 -20.5495 -20.4564 -20.4275 -20.3343 -20.2711 -20.1015 -20.0116
   -19.9692 -19.8695 -19.8348 -19.7193  -8.3948  -8.3587  -8.3178  -8.2819
    -8.2504  -8.1868  -8.0790  -8.0290  -7.9771  -7.8434  -7.8210  -7.7901
    -6.3590  -6.0095  -5.8789  -5.5768  -5.5378  -5.1050  -4.7209  -4.4141
    -4.3107  -4.1641  -4.0382  -3.6764  -3.0306  -2.9409  -2.9208  -2.8492
    -2.8085  -2.7465  -2.7121  -2.6939  -2.6422  -2.5664  -2.4948  -2.4450

     highest occupied level (ev):    -2.3750

!    total energy              =    -413.95700340 Ry
     estimated scf accuracy    <       0.00000009 Ry

     The total energy is the sum of the following terms:
     one-electron contribution =    -294.77187290 Ry
     hartree contribution      =     181.30695995 Ry
     xc contribution           =    -101.20226364 Ry
     ewald contribution        =    -199.28982681 Ry

     convergence has been achieved in  15 iterations

     Forces acting on atoms (cartesian axes, Ry/au):

     atom    1 type  2   force =    -0.00575702    0.01765746    0.01138086
     atom    2 type  2   force =     0.00575702   -0.01765746   -0.01138086
     atom    3 type  2   force =    -0.01241330   -0.01381446    0.01138086
     atom    4 type  2   force =     0.01241330    0.01381446   -0.01138086
     atom    5 type  2   force =     0.01817032   -0.00384300    0.01138086
     atom    6 type  2   force =    -0.01817032    0.00384300   -0.01138086
     atom    7 type  2   force =    -0.01370626    0.01115163   -0.00822094
     atom    8 type  2   force =     0.01370626   -0.01115163    0.00822094
     atom    9 type  2   force =    -0.00280446   -0.01744578   -0.00822094
     atom   10 type  2   force =     0.00280446    0.01744578    0.00822094
     atom   11 type  2   force =     0.01651072    0.00629415   -0.00822094
     atom   12 type  2   force =    -0.01651072   -0.00629415    0.00822094
     atom   13 type  1   force =     0.00763238   -0.01466586    0.00826685
     atom   14 type  1   force =    -0.00763238    0.01466586   -0.00826685
     atom   15 type  1   force =     0.00888482    0.01394277    0.00826685
     atom   16 type  1   force =    -0.00888482   -0.01394277   -0.00826685
     atom   17 type  1   force =    -0.01651720    0.00072310    0.00826685
     atom   18 type  1   force =     0.01651720   -0.00072310   -0.00826685
     atom   19 type  1   force =    -0.00269829   -0.00325093   -0.01813021
     atom   20 type  1   force =     0.00269829    0.00325093    0.01813021
     atom   21 type  1   force =     0.00416453   -0.00071133   -0.01813021
     atom   22 type  1   force =    -0.00416453    0.00071133    0.01813021
     atom   23 type  1   force =    -0.00146624    0.00396225   -0.01813021
     atom   24 type  1   force =     0.00146624   -0.00396225    0.01813021
     atom   25 type  1   force =    -0.00504422   -0.01715239   -0.00006703
     atom   26 type  1   force =     0.00504422    0.01715239    0.00006703
     atom   27 type  1   force =     0.01737652    0.00420777   -0.00006703
     atom   28 type  1   force =    -0.01737652   -0.00420777    0.00006703
     atom   29 type  1   force =    -0.01233229    0.01294462   -0.00006703
     atom   30 type  1   force =     0.01233229   -0.01294462    0.00006703
     atom   31 type  1   force =    -0.01287611    0.01170220    0.00956957
     atom   32 type  1   force =     0.01287611   -0.01170220   -0.00956957
     atom   33 type  1   force =    -0.00369635   -0.01700214    0.00956957
     atom   34 type  1   force =     0.00369635    0.01700214   -0.00956957
     atom   35 type  1   force =     0.01657245    0.00529994    0.00956957
     atom   36 type  1   force =    -0.01657245   -0.00529994   -0.00956957

     Total force =     0.116356     Total SCF correction =     0.000233


     Computing stress (Cartesian axis) and pressure

          total   stress  (Ry/bohr**3)                   (kbar)     P=      -34.90
  -0.00024988   0.00000000  -0.00000000          -36.76        0.00       -0.00
  -0.00000000  -0.00024988  -0.00000000           -0.00      -36.76       -0.00
  -0.00000000  -0.00000000  -0.00021201           -0.00       -0.00      -31.19


     Writing all to output data dir ./iceII/iceII.save/ :
     XML data file, charge density, pseudopotentials, collected wavefunctions

     init_run     :      0.93s CPU      0.99s WALL (       1 calls)
     electrons    :     12.61s CPU     12.83s WALL (       1 calls)
     forces       :      0.14s CPU      0.15s WALL (       1 calls)
     stress       :      0.92s CPU      0.93s WALL (       1 calls)

     Called by init_run:
     wfcinit      :      0.35s CPU      0.36s WALL (       1 calls)
     potinit      :      0.03s CPU      0.05s WALL (       1 calls)
     hinit0       :      0.39s CPU      0.40s WALL (       1 calls)

     Called by electrons:
     c_bands      :     10.41s CPU     10.51s WALL (      15 calls)
     sum_band     :      1.61s CPU      1.65s WALL (      15 calls)
     v_of_rho     :      0.36s CPU      0.40s WALL (      16 calls)
     newd         :      0.12s CPU      0.12s WALL (      16 calls)
     mix_rho      :      0.06s CPU      0.06s WALL (      15 calls)

     Called by c_bands:
     init_us_2    :      0.19s CPU      0.20s WALL (     132 calls)
     cegterg      :     10.01s CPU     10.08s WALL (      60 calls)

     Called by *egterg:
     cdiaghg      :      0.75s CPU      0.75s WALL (     202 calls)
     h_psi        :      7.85s CPU      7.90s WALL (     206 calls)
     s_psi        :      0.33s CPU      0.34s WALL (     206 calls)
     g_psi        :      0.02s CPU      0.02s WALL (     142 calls)

     Called by h_psi:
     h_psi:calbec :      0.57s CPU      0.58s WALL (     206 calls)
     vloc_psi     :      6.87s CPU      6.91s WALL (     206 calls)
     add_vuspsi   :      0.35s CPU      0.35s WALL (     206 calls)

     General routines
     calbec       :      0.78s CPU      0.80s WALL (     286 calls)
     fft          :      0.61s CPU      0.64s WALL (     184 calls)
     ffts         :      0.02s CPU      0.03s WALL (      15 calls)
     fftw         :      7.28s CPU      7.32s WALL (   19542 calls)

     Parallel routines

     PWSCF        :     14.91s CPU     15.51s WALL


   This run was terminated on:  17:59:45  23Mar2026            

=------------------------------------------------------------------------------=
   JOB DONE.
=------------------------------------------------------------------------------=
