
     Program PWSCF v.7.3.1 starts on 31Mar2026 at 19:13:35 

     This program is part of the open-source Quantum ESPRESSO suite
     for quantum simulation of materials; please cite
         "P. Giannozzi et al., J. Phys.:Condens. Matter 21 395502 (2009);
         "P. Giannozzi et al., J. Phys.:Condens. Matter 29 465901 (2017);
         "P. Giannozzi et al., J. Chem. Phys. 152 154105 (2020);
          URL http://www.quantum-espresso.org", 
     in publications or presentations arising from this work. More details at
     http://www.quantum-espresso.org/quote

     Parallel version (MPI), running on   128 processors

     MPI processes distributed on     1 nodes
     498585 MiB available memory on the printing compute node when the environment starts

     Waiting for input...
     Reading input from standard input

     Current dimensions of program PWSCF are:
     Max number of different atomic species (ntypx) = 10
     Max number of k-points (npk) =  40000
     Max angular momentum in pseudopotentials (lmaxx) =  4

     File ./iceII/iceII.update deleted, as requested

     File ./iceII/iceII.bfgs deleted, as requested

     K-points division:     npool     =       4
     R & G space division:  proc/nbgrp/npool/nimage =      32
     Subspace diagonalization in iterative solution of the eigenvalue problem:
     a serial algorithm will be used


     Parallelization info
     --------------------
     sticks:   dense  smooth     PW     G-vecs:    dense   smooth      PW
     Min         183     183     53                 7738     7738    1230
     Max         184     184     54                 7741     7741    1234
     Sum        5871    5871   1727               247669   247669   39451

     Using Slab Decomposition



     bravais-lattice index     =            5
     lattice parameter (alat)  =      14.9226  a.u.
     unit-cell volume          =    2146.9693 (a.u.)^3
     number of atoms/cell      =           36
     number of atomic types    =            2
     number of electrons       =        96.00
     number of Kohn-Sham states=           48
     kinetic-energy cutoff     =      90.0000  Ry
     charge density cutoff     =     360.0000  Ry
     scf convergence threshold =      1.0E-07
     mixing beta               =       0.7000
     number of iterations used =            8  plain     mixing
     energy convergence thresh.=      1.0E-04
     force convergence thresh. =      1.0E-04
     Exchange-correlation=  SLA  PW   PBE  PBE
                           (   1   4   3   4   0   0   0)
     nstep                     =           50


     celldm(1)=  14.922599  celldm(2)=   0.000000  celldm(3)=   0.000000
     celldm(4)=  -0.392337  celldm(5)=   0.000000  celldm(6)=   0.000000

     crystal axes: (cart. coord. in units of alat)
               a(1) = (   0.834367  -0.481722   0.267909 )  
               a(2) = (   0.000000   0.963444   0.267909 )  
               a(3) = (  -0.834367  -0.481722   0.267909 )  

     reciprocal axes: (cart. coord. in units 2 pi/alat)
               b(1) = (  0.599257 -0.345981  1.244203 )  
               b(2) = (  0.000000  0.691962  1.244203 )  
               b(3) = ( -0.599257 -0.345981  1.244203 )  


     PseudoPot. # 1 for H  read from file:
     ./H.pbe-van_ak.UPF
     MD5 check sum: 077eb6d537518a38cb46c6de387227b7
     Pseudo is Ultrasoft, Zval =  1.0
     Generated by new atomic code, or converted to UPF format
     Using radial grid of  615 points,  1 beta functions with: 
                l(1) =   0
     Q(r) pseudized with  8 coefficients,  rinner =    0.800

     PseudoPot. # 2 for O  read from file:
     ./O.pbe-van_ak.UPF
     MD5 check sum: 78c19812648e8988a0fe644b0f25305e
     Pseudo is Ultrasoft, Zval =  6.0
     Generated by new atomic code, or converted to UPF format
     Using radial grid of  737 points,  4 beta functions with: 
                l(1) =   0
                l(2) =   0
                l(3) =   1
                l(4) =   1
     Q(r) pseudized with  8 coefficients,  rinner =    0.800   0.800   0.800


     atomic species   valence    mass     pseudopotential
     H                 1.00     1.00800     H ( 1.00)
     O                 6.00    16.00000     O ( 1.00)

      6 Sym. Ops., with inversion, found



   Cartesian axes

     site n.     atom                  positions (alat units)
         1        O      tau(   1) = (  -0.4847673  -0.5197781   0.3083633  )
         2        O      tau(   2) = (   0.4847673   0.5197782   0.4953638  )
         3        O      tau(   3) = (   0.6925247  -0.1599317   0.3083633  )
         4        O      tau(   4) = (  -0.6925248   0.1599317   0.4953638  )
         5        O      tau(   5) = (  -0.2077574   0.6797099   0.3083633  )
         6        O      tau(   6) = (   0.2077574  -0.6797099   0.4953638  )
         7        O      tau(   7) = (   0.1218176   0.3323883   0.4179381  )
         8        O      tau(   8) = (  -0.1218176  -0.3323883   0.3857890  )
         9        O      tau(   9) = (  -0.3487655  -0.0606970   0.4179381  )
        10        O      tau(  10) = (   0.3487655   0.0606970   0.3857890  )
        11        O      tau(  11) = (   0.2269479  -0.2716913   0.4179381  )
        12        O      tau(  12) = (  -0.2269479   0.2716912   0.3857890  )
        13        H      tau(  13) = (  -0.5381668  -0.4032014   0.2796970  )
        14        H      tau(  14) = (   0.5381668   0.4032014   0.5240301  )
        15        H      tau(  15) = (   0.6182661  -0.2644654   0.2796970  )
        16        H      tau(  16) = (  -0.6182661   0.2644654   0.5240301  )
        17        H      tau(  17) = (  -0.0800993   0.6676668   0.2796970  )
        18        H      tau(  18) = (   0.0800993  -0.6676668   0.5240301  )
        19        H      tau(  19) = (  -0.4872704  -0.4817221   0.4326731  )
        20        H      tau(  20) = (   0.4872704   0.4817221   0.3710540  )
        21        H      tau(  21) = (   0.6608188  -0.1811275   0.4326731  )
        22        H      tau(  22) = (  -0.6608188   0.1811275   0.3710540  )
        23        H      tau(  23) = (  -0.1735484   0.6628496   0.4326731  )
        24        H      tau(  24) = (   0.1735484  -0.6628496   0.3710540  )
        25        H      tau(  25) = (   0.2703349  -0.1502973   0.4058822  )
        26        H      tau(  26) = (  -0.2703350   0.1502973   0.3978449  )
        27        H      tau(  27) = (  -0.0050062   0.3092656   0.4058822  )
        28        H      tau(  28) = (   0.0050062  -0.3092656   0.3978449  )
        29        H      tau(  29) = (  -0.2653287  -0.1589683   0.4058822  )
        30        H      tau(  30) = (   0.2653287   0.1589683   0.3978449  )
        31        H      tau(  31) = (   0.3178939  -0.3347969   0.3493534  )
        32        H      tau(  32) = (  -0.3178939   0.3347969   0.4543737  )
        33        H      tau(  33) = (   0.1309957   0.4427026   0.3493534  )
        34        H      tau(  34) = (  -0.1309956  -0.4427026   0.4543737  )
        35        H      tau(  35) = (  -0.4488895  -0.1079057   0.3493534  )
        36        H      tau(  36) = (   0.4488895   0.1079057   0.4543737  )

     number of k points=    14
                       cart. coord. in units 2pi/alat
        k(    1) = (   0.0000000   0.0000000   0.0000000), wk =   0.0312500
        k(    2) = (  -0.1498141  -0.0864952   0.3110508), wk =   0.1875000
        k(    3) = (   0.2996283   0.1729905  -0.6221017), wk =   0.0937500
        k(    4) = (  -0.1498141   0.0864952   0.6221017), wk =   0.1875000
        k(    5) = (   0.2996283   0.3459809  -0.3110508), wk =   0.1875000
        k(    6) = (   0.1498141   0.2594857   0.0000000), wk =   0.1875000
        k(    7) = (   0.2996283  -0.1729905  -1.2442034), wk =   0.0937500
        k(    8) = (   0.0000000   0.0000000   0.9331525), wk =   0.0625000
        k(    9) = (   0.4494424   0.2594857   0.0000000), wk =   0.1875000
        k(   10) = (   0.2996283   0.1729905   0.3110508), wk =   0.1875000
        k(   11) = (   0.4494424  -0.2594857  -0.9331525), wk =   0.1875000
        k(   12) = (   0.2996283  -0.3459809  -0.6221017), wk =   0.1875000
        k(   13) = (   0.0000000   0.0000000  -1.8663050), wk =   0.0312500
        k(   14) = (   0.2996283  -0.3459809   0.3110508), wk =   0.1875000

     Dense  grid:   247669 G-vectors     FFT dimensions: (  96,  96,  96)

     Estimated max dynamical RAM per process >      16.29 MB

     Estimated total dynamical RAM >       1.86 GB

     Initial potential from superposition of free atoms

     starting charge      95.9998, renormalised to      96.0000
     Starting wfcs are   72 randomized atomic wfcs

     total cpu time spent up to now is        1.5 secs

     per-process dynamical memory:    20.4 Mb

     Self-consistent Calculation

     iteration #  1     ecut=    90.00 Ry     beta= 0.70
     Davidson diagonalization with overlap
     ethr =  1.00E-02,  avg # of iterations =  2.0

     total cpu time spent up to now is        2.4 secs

     total energy              =    -412.26528460 Ry
     estimated scf accuracy    <       3.68686158 Ry

     iteration #  2     ecut=    90.00 Ry     beta= 0.70
     Davidson diagonalization with overlap
     ethr =  3.84E-03,  avg # of iterations =  3.0

     total cpu time spent up to now is        3.5 secs

     total energy              =    -413.42473669 Ry
     estimated scf accuracy    <       2.48622722 Ry

     iteration #  3     ecut=    90.00 Ry     beta= 0.70
     Davidson diagonalization with overlap
     ethr =  2.59E-03,  avg # of iterations =  2.0

     total cpu time spent up to now is        4.3 secs

     total energy              =    -413.73902213 Ry
     estimated scf accuracy    <       0.10971718 Ry

     iteration #  4     ecut=    90.00 Ry     beta= 0.70
     Davidson diagonalization with overlap
     ethr =  1.14E-04,  avg # of iterations =  4.0

     negative rho (up, down):  7.848E-08 0.000E+00

     total cpu time spent up to now is        5.6 secs

     total energy              =    -413.82496785 Ry
     estimated scf accuracy    <       0.12765295 Ry

     iteration #  5     ecut=    90.00 Ry     beta= 0.70
     Davidson diagonalization with overlap
     ethr =  1.14E-04,  avg # of iterations =  2.0

     negative rho (up, down):  1.769E-07 0.000E+00

     total cpu time spent up to now is        6.3 secs

     total energy              =    -413.82854666 Ry
     estimated scf accuracy    <       0.02195650 Ry

     iteration #  6     ecut=    90.00 Ry     beta= 0.70
     Davidson diagonalization with overlap
     ethr =  2.29E-05,  avg # of iterations =  2.0

     negative rho (up, down):  2.811E-07 0.000E+00

     total cpu time spent up to now is        7.1 secs

     total energy              =    -413.82806289 Ry
     estimated scf accuracy    <       0.00710145 Ry

     iteration #  7     ecut=    90.00 Ry     beta= 0.70
     Davidson diagonalization with overlap
     ethr =  7.40E-06,  avg # of iterations =  3.0

     negative rho (up, down):  3.265E-07 0.000E+00

     total cpu time spent up to now is        8.1 secs

     total energy              =    -413.82974079 Ry
     estimated scf accuracy    <       0.00013808 Ry

     iteration #  8     ecut=    90.00 Ry     beta= 0.70
     Davidson diagonalization with overlap
     ethr =  1.44E-07,  avg # of iterations =  6.0

     negative rho (up, down):  2.971E-07 0.000E+00

     total cpu time spent up to now is        9.6 secs

     total energy              =    -413.82979155 Ry
     estimated scf accuracy    <       0.00099712 Ry

     iteration #  9     ecut=    90.00 Ry     beta= 0.70
     Davidson diagonalization with overlap
     ethr =  1.44E-07,  avg # of iterations =  3.0

     negative rho (up, down):  2.600E-07 0.000E+00

     total cpu time spent up to now is       10.6 secs

     total energy              =    -413.82979333 Ry
     estimated scf accuracy    <       0.00016540 Ry

     iteration # 10     ecut=    90.00 Ry     beta= 0.70
     Davidson diagonalization with overlap
     ethr =  1.44E-07,  avg # of iterations =  2.6

     negative rho (up, down):  2.616E-07 0.000E+00

     total cpu time spent up to now is       11.5 secs

     total energy              =    -413.82983109 Ry
     estimated scf accuracy    <       0.00000198 Ry

     iteration # 11     ecut=    90.00 Ry     beta= 0.70
     Davidson diagonalization with overlap
     ethr =  2.06E-09,  avg # of iterations =  4.9

     negative rho (up, down):  2.593E-07 0.000E+00

     total cpu time spent up to now is       12.6 secs

     total energy              =    -413.82983207 Ry
     estimated scf accuracy    <       0.00000067 Ry

     iteration # 12     ecut=    90.00 Ry     beta= 0.70
     Davidson diagonalization with overlap
     ethr =  6.94E-10,  avg # of iterations =  3.0

     negative rho (up, down):  2.603E-07 0.000E+00

     total cpu time spent up to now is       13.6 secs

     End of self-consistent calculation

          k = 0.0000 0.0000 0.0000 ( 30973 PWs)   bands (ev):

   -20.8665 -20.4439 -20.4439 -20.2362 -20.2362 -20.2095 -20.2095 -20.1974
   -20.1932 -19.9144 -19.9144 -19.6241  -8.2605  -8.0693  -8.0103  -8.0103
    -7.9397  -7.9397  -7.5194  -7.3728  -7.3728  -7.1612  -7.1612  -7.0374
    -6.9729  -6.1261  -6.1261  -5.5649  -5.5649  -5.4829  -5.4829  -5.1996
    -5.0234  -4.3960  -4.3960  -3.7489  -2.9919  -2.9919  -2.8973  -2.8201
    -2.7757  -2.7757  -2.6392  -2.6392  -2.6267  -2.6076  -2.5622  -2.5622

          k =-0.1498-0.0865 0.3111 ( 30963 PWs)   bands (ev):

   -20.7980 -20.4819 -20.4329 -20.3699 -20.3468 -20.2786 -20.1454 -20.1053
   -20.0551 -19.9202 -19.8815 -19.6797  -8.2082  -8.1322  -8.0572  -8.0132
    -7.9212  -7.8610  -7.5144  -7.3414  -7.3302  -7.1952  -7.0761  -7.0402
    -6.8488  -6.2661  -6.1435  -5.8819  -5.5708  -5.4457  -5.3057  -5.0921
    -5.0370  -4.3873  -4.3274  -3.8790  -3.1002  -3.0316  -2.9196  -2.8632
    -2.8106  -2.7784  -2.7378  -2.6757  -2.6168  -2.5777  -2.5470  -2.5017

          k = 0.2996 0.1730-0.6221 ( 30974 PWs)   bands (ev):

   -20.6207 -20.6195 -20.4629 -20.4522 -20.3463 -20.3438 -20.0923 -20.0853
   -19.9254 -19.9245 -19.8220 -19.8064  -8.1863  -8.1300  -8.0476  -8.0288
    -7.9233  -7.8655  -7.4624  -7.3443  -7.3060  -7.2046  -6.9984  -6.9972
    -6.6200  -6.4841  -6.1963  -6.0376  -5.5736  -5.4936  -5.3043  -5.1511
    -4.6409  -4.5142  -4.2678  -4.0440  -3.1981  -3.0499  -2.9436  -2.9147
    -2.8468  -2.8289  -2.7426  -2.6874  -2.6665  -2.5422  -2.5325  -2.4580

          k =-0.1498 0.0865 0.6221 ( 30985 PWs)   bands (ev):

   -20.6592 -20.5331 -20.5250 -20.4150 -20.3937 -20.3325 -20.0987 -20.0233
   -19.9914 -19.8825 -19.8652 -19.7817  -8.1937  -8.1079  -8.0902  -7.9861
    -7.9416  -7.8529  -7.4679  -7.3781  -7.3295  -7.1083  -7.0444  -6.9932
    -6.6248  -6.4203  -6.3282  -5.8777  -5.7122  -5.5355  -5.2301  -5.0317
    -4.8326  -4.3532  -4.3311  -4.0554  -3.1770  -3.0903  -2.9323  -2.8887
    -2.8568  -2.8086  -2.7685  -2.6869  -2.6574  -2.5517  -2.5354  -2.4524

          k = 0.2996 0.3460-0.3111 ( 30944 PWs)   bands (ev):

   -20.7080 -20.5635 -20.4666 -20.4408 -20.3678 -20.3019 -20.1032 -20.0083
   -19.9983 -19.9183 -19.8601 -19.7579  -8.1997  -8.1762  -8.0292  -8.0077
    -7.9507  -7.8591  -7.4956  -7.4373  -7.3177  -7.0775  -7.0470  -6.9822
    -6.7454  -6.4573  -6.2275  -5.8954  -5.8597  -5.3806  -5.1991  -4.9460
    -4.7269  -4.5042  -4.3097  -4.0316  -3.0953  -3.0281  -2.9478  -2.8796
    -2.8295  -2.7810  -2.7216  -2.7145  -2.6352  -2.5951  -2.5386  -2.4412

          k = 0.1498 0.2595 0.0000 ( 30950 PWs)   bands (ev):

   -20.8168 -20.5118 -20.4607 -20.3402 -20.3138 -20.2380 -20.1648 -20.0978
   -20.0603 -19.9245 -19.8918 -19.6683  -8.2454  -8.1435  -8.0495  -8.0082
    -7.8953  -7.8894  -7.5635  -7.4313  -7.2529  -7.1651  -7.1040  -7.0004
    -6.9718  -6.2534  -6.1271  -5.8724  -5.7628  -5.3257  -5.1996  -5.0738
    -4.8993  -4.4633  -4.3724  -3.8412  -2.9927  -2.9747  -2.9316  -2.8469
    -2.8098  -2.7849  -2.6762  -2.6601  -2.6291  -2.6203  -2.5227  -2.5095

          k = 0.2996-0.1730-1.2442 ( 30938 PWs)   bands (ev):

   -20.6972 -20.6636 -20.4737 -20.3874 -20.3128 -20.2613 -20.1128 -20.0821
   -19.9750 -19.9568 -19.7902 -19.7755  -8.2252  -8.1892  -8.0622  -8.0275
    -7.8681  -7.8661  -7.5578  -7.4935  -7.2342  -7.1893  -7.0176  -6.9757
    -6.6863  -6.6426  -6.1947  -5.9772  -5.6736  -5.4446  -5.0828  -4.8318
    -4.7285  -4.6531  -4.2281  -4.0463  -3.0065  -2.9610  -2.9469  -2.8785
    -2.8112  -2.7592  -2.7370  -2.6690  -2.6589  -2.6173  -2.4903  -2.4758

          k = 0.0000 0.0000 0.9332 ( 30966 PWs)   bands (ev):

   -20.6083 -20.6083 -20.5348 -20.4952 -20.3307 -20.3307 -20.0331 -20.0331
   -19.9172 -19.8868 -19.8584 -19.8584  -8.1774  -8.1774  -8.0465  -7.9499
    -7.9499  -7.9349  -7.5037  -7.4068  -7.4068  -6.9896  -6.9896  -6.9541
    -6.5539  -6.5500  -6.5500  -5.9201  -5.6286  -5.6286  -4.9960  -4.8147
    -4.8147  -4.3727  -4.3727  -4.2046  -3.0412  -3.0412  -2.9244  -2.8701
    -2.8023  -2.8023  -2.7506  -2.6882  -2.6882  -2.5815  -2.5815  -2.4186

          k = 0.4494 0.2595 0.0000 ( 30952 PWs)   bands (ev):

   -20.7250 -20.5708 -20.5661 -20.3892 -20.2620 -20.2540 -20.1275 -20.1211
   -19.9757 -19.8901 -19.8590 -19.7480  -8.2203  -8.1784  -8.1149  -7.9670
    -7.9102  -7.8475  -7.5746  -7.4463  -7.3224  -7.0903  -7.0420  -6.9956
    -6.7844  -6.4238  -6.3492  -5.9305  -5.6912  -5.4381  -5.0050  -4.9665
    -4.7706  -4.4724  -4.3353  -4.0202  -2.9902  -2.9829  -2.9363  -2.8829
    -2.8268  -2.7720  -2.7055  -2.6841  -2.6368  -2.5955  -2.5391  -2.4583

          k = 0.2996 0.1730 0.3111 ( 30960 PWs)   bands (ev):

   -20.7516 -20.5233 -20.4421 -20.4275 -20.3463 -20.2931 -20.1162 -20.0875
   -20.0232 -19.9088 -19.8602 -19.7149  -8.2191  -8.1628  -8.0821  -7.9603
    -7.9563  -7.8136  -7.5294  -7.4080  -7.2352  -7.1649  -7.1219  -7.0292
    -6.7714  -6.2732  -6.1071  -6.0226  -5.7978  -5.4699  -5.1863  -4.9950
    -4.8365  -4.4546  -4.3165  -3.9223  -3.1128  -3.0387  -2.9682  -2.9154
    -2.8248  -2.7858  -2.7144  -2.6843  -2.6058  -2.5661  -2.5110  -2.4937

          k = 0.4494-0.2595-0.9332 ( 30962 PWs)   bands (ev):

   -20.6308 -20.6305 -20.5021 -20.4549 -20.3353 -20.2645 -20.1525 -20.0744
   -19.9429 -19.8918 -19.8453 -19.7691  -8.2468  -8.1513  -8.1121  -7.9674
    -7.9226  -7.7943  -7.5711  -7.3659  -7.2525  -7.1988  -7.0620  -7.0351
    -6.5250  -6.4864  -6.1797  -6.0324  -5.8523  -5.5542  -5.1464  -4.8753
    -4.5749  -4.5485  -4.3596  -3.9878  -3.1139  -3.0566  -3.0216  -2.9152
    -2.8819  -2.8004  -2.6675  -2.6464  -2.6184  -2.5789  -2.5128  -2.4601

          k = 0.2996-0.3460-0.6221 ( 30944 PWs)   bands (ev):

   -20.5892 -20.5873 -20.4919 -20.4842 -20.3638 -20.3628 -20.0770 -20.0716
   -19.9311 -19.9246 -19.8161 -19.8011  -8.2603  -8.0691  -8.0395  -8.0220
    -7.9880  -7.7986  -7.4936  -7.3742  -7.2335  -7.1880  -7.0430  -7.0379
    -6.4904  -6.3658  -6.2126  -6.0870  -5.7794  -5.7441  -5.0686  -4.9979
    -4.5835  -4.5404  -4.3736  -3.9722  -3.2278  -3.0701  -3.0198  -2.9525
    -2.9021  -2.7728  -2.7094  -2.6720  -2.6518  -2.5344  -2.5183  -2.4430

          k = 0.0000 0.0000-1.8663 ( 30960 PWs)   bands (ev):

   -20.5608 -20.5498 -20.4589 -20.4589 -20.4529 -20.4529 -20.0069 -20.0069
   -19.9799 -19.9799 -19.8019 -19.7903  -8.3058  -8.0354  -8.0354  -8.0127
    -8.0127  -7.7678  -7.5414  -7.3701  -7.1428  -7.1428  -7.1118  -7.1118
    -6.3268  -6.1430  -6.1007  -6.1007  -6.0828  -6.0828  -4.8593  -4.8593
    -4.6169  -4.6169  -4.3972  -3.9235  -3.2578  -3.0717  -3.0717  -2.9867
    -2.9867  -2.7216  -2.7038  -2.6138  -2.6138  -2.5468  -2.5468  -2.4193

          k = 0.2996-0.3460 0.3111 ( 30944 PWs)   bands (ev):

   -20.7079 -20.5634 -20.4697 -20.4391 -20.3652 -20.3027 -20.1038 -20.0200
   -19.9828 -19.9264 -19.8545 -19.7595  -8.2148  -8.1439  -8.0648  -8.0046
    -7.9219  -7.8669  -7.5400  -7.4079  -7.2938  -7.1135  -7.0133  -7.0020
    -6.7393  -6.3926  -6.3164  -5.9482  -5.7153  -5.4400  -5.2776  -4.8611
    -4.7079  -4.4908  -4.3746  -4.0120  -3.1024  -3.0015  -2.9638  -2.8763
    -2.8338  -2.7866  -2.7215  -2.7154  -2.6520  -2.5659  -2.5394  -2.4491

     highest occupied level (ev):    -2.4186

!    total energy              =    -413.82983225 Ry
     estimated scf accuracy    <       0.00000005 Ry

     The total energy is the sum of the following terms:
     one-electron contribution =    -296.29694174 Ry
     hartree contribution      =     181.90897148 Ry
     xc contribution           =    -100.87576134 Ry
     ewald contribution        =    -198.56610065 Ry

     convergence has been achieved in  12 iterations

     Forces acting on atoms (cartesian axes, Ry/au):

     atom    1 type  2   force =    -0.04221484    0.08486829    0.04497170
     atom    2 type  2   force =     0.04221484   -0.08486829   -0.04497170
     atom    3 type  2   force =    -0.05239067   -0.07899327    0.04497170
     atom    4 type  2   force =     0.05239067    0.07899327   -0.04497170
     atom    5 type  2   force =     0.09460551   -0.00587502    0.04497170
     atom    6 type  2   force =    -0.09460551    0.00587502   -0.04497170
     atom    7 type  2   force =    -0.04809239    0.03559995   -0.03229517
     atom    8 type  2   force =     0.04809239   -0.03559995    0.03229517
     atom    9 type  2   force =    -0.00678427   -0.05944920   -0.03229517
     atom   10 type  2   force =     0.00678427    0.05944920    0.03229517
     atom   11 type  2   force =     0.05487665    0.02384926   -0.03229517
     atom   12 type  2   force =    -0.05487665   -0.02384926    0.03229517
     atom   13 type  1   force =     0.01129783   -0.04303611   -0.04404234
     atom   14 type  1   force =    -0.01129783    0.04303611    0.04404234
     atom   15 type  1   force =     0.03162145    0.03130226   -0.04404234
     atom   16 type  1   force =    -0.03162145   -0.03130226    0.04404234
     atom   17 type  1   force =    -0.04291928    0.01173385   -0.04404234
     atom   18 type  1   force =     0.04291928   -0.01173385    0.04404234
     atom   19 type  1   force =     0.02867752   -0.04849312   -0.01098334
     atom   20 type  1   force =    -0.02867752    0.04849312    0.01098334
     atom   21 type  1   force =     0.02765752    0.04908202   -0.01098334
     atom   22 type  1   force =    -0.02765752   -0.04908202    0.01098334
     atom   23 type  1   force =    -0.05633504   -0.00058890   -0.01098334
     atom   24 type  1   force =     0.05633504    0.00058890    0.01098334
     atom   25 type  1   force =    -0.01959117   -0.02308845    0.01359954
     atom   26 type  1   force =     0.01959117    0.02308845   -0.01359954
     atom   27 type  1   force =     0.02979077   -0.00542223    0.01359954
     atom   28 type  1   force =    -0.02979077    0.00542223   -0.01359954
     atom   29 type  1   force =    -0.01019960    0.02851068    0.01359954
     atom   30 type  1   force =     0.01019960   -0.02851068   -0.01359954
     atom   31 type  1   force =    -0.04233249    0.00252358    0.02691955
     atom   32 type  1   force =     0.04233249   -0.00252358   -0.02691955
     atom   33 type  1   force =     0.01898076   -0.03792280    0.02691955
     atom   34 type  1   force =    -0.01898076    0.03792280   -0.02691955
     atom   35 type  1   force =     0.02335173    0.03539922    0.02691955
     atom   36 type  1   force =    -0.02335173   -0.03539922   -0.02691955

     Total force =     0.398518     Total SCF correction =     0.000284


     Computing stress (Cartesian axis) and pressure

          total   stress  (Ry/bohr**3)                   (kbar)     P=      -52.51
  -0.00043574   0.00000000  -0.00000000          -64.10        0.00       -0.00
  -0.00000000  -0.00043574  -0.00000000           -0.00      -64.10       -0.00
   0.00000000  -0.00000000  -0.00019940            0.00       -0.00      -29.33


     BFGS Geometry Optimization
     Energy error            =      0.0E+00 Ry
     Gradient error          =      9.5E-02 Ry/Bohr

     number of scf cycles    =   1
     number of bfgs steps    =   0

     energy             new  =    -413.8298322465 Ry

     new trust radius        =       0.1049150756 bohr
     new conv_thr            =       0.0000001000 Ry


ATOMIC_POSITIONS (crystal)
O                0.2730866900        0.0316849589        0.8574771579
O                0.7269133100        0.9683150521        0.1425228121
O                0.8574771579        0.2730866900        0.0316849589
O                0.1425228121        0.7269133100        0.9683150521
O                0.0316849589        0.8574771579        0.2730866900
O                0.9683150521        0.1425228121        0.7269133100
O                0.4725506437        0.7489580940        0.3304132006
O                0.5274493563        0.2510419060        0.6695867694
O                0.3304132006        0.4725506437        0.7489580940
O                0.6695867694        0.5274493563        0.2510419060
O                0.7489580940        0.3304132006        0.4725506437
O                0.2510419060        0.6695867694        0.5274493563
H                0.1627793712        0.0633322869        0.8068719775
H                0.8372206148        0.9366677051        0.1931280225
H                0.8068719775        0.1627793712        0.0633322869
H                0.1931280225        0.8372206148        0.9366677051
H                0.0633322869        0.8068719775        0.1627793712
H                0.9366677051        0.1931280225        0.8372206148
H                0.4143601654        0.2018356097        0.9960569128
H                0.5856398346        0.7981644053        0.0039430662
H                0.9960569128        0.4143601654        0.2018356097
H                0.0039430662        0.5856398346        0.7981644053
H                0.2018356097        0.9960569128        0.4143601654
H                0.7981644053        0.0039430662        0.5856398346
H                0.7198824431        0.4010632703        0.3974559431
H                0.2801175569        0.5989366997        0.6025440869
H                0.3974559431        0.7198824431        0.4010632703
H                0.6025440869        0.2801175569        0.5989366997
H                0.4010632703        0.3974559431        0.7198824431
H                0.5989366997        0.6025440869        0.2801175569
H                0.7414859887        0.2053614868        0.3638859525
H                0.2585140113        0.7946384982        0.6361140475
H                0.3638859525        0.7414859887        0.2053614868
H                0.6361140475        0.2585140113        0.7946384982
H                0.2053614868        0.3638859525        0.7414859887
H                0.7946384982        0.6361140475        0.2585140113



     Writing config-only to output data dir ./iceII/iceII.save/ :
     XML data file
     NEW-OLD atomic charge density approx. for the potential

     negative rho (up, down):  2.967E-07 0.000E+00

     total cpu time spent up to now is       14.8 secs

     per-process dynamical memory:    26.4 Mb

     Self-consistent Calculation

     iteration #  1     ecut=    90.00 Ry     beta= 0.70
     Davidson diagonalization with overlap
     ethr =  1.00E-06,  avg # of iterations =  9.9

     negative rho (up, down):  3.037E-07 0.000E+00

     total cpu time spent up to now is       17.2 secs

     total energy              =    -413.89692559 Ry
     estimated scf accuracy    <       0.04560130 Ry

     iteration #  2     ecut=    90.00 Ry     beta= 0.70
     Davidson diagonalization with overlap
     ethr =  4.75E-05,  avg # of iterations =  3.0

     negative rho (up, down):  2.270E-07 0.000E+00

     total cpu time spent up to now is       18.2 secs

     total energy              =    -413.90949876 Ry
     estimated scf accuracy    <       0.01469088 Ry

     iteration #  3     ecut=    90.00 Ry     beta= 0.70
     Davidson diagonalization with overlap
     ethr =  1.53E-05,  avg # of iterations =  2.0

     negative rho (up, down):  2.395E-07 0.000E+00

     total cpu time spent up to now is       18.9 secs

     total energy              =    -413.91156259 Ry
     estimated scf accuracy    <       0.00046175 Ry

     iteration #  4     ecut=    90.00 Ry     beta= 0.70
     Davidson diagonalization with overlap
     ethr =  4.81E-07,  avg # of iterations =  5.0

     negative rho (up, down):  2.565E-07 0.000E+00

     total cpu time spent up to now is       20.1 secs

     total energy              =    -413.91184824 Ry
     estimated scf accuracy    <       0.00046768 Ry

     iteration #  5     ecut=    90.00 Ry     beta= 0.70
     Davidson diagonalization with overlap
     ethr =  4.81E-07,  avg # of iterations =  2.0

     negative rho (up, down):  2.684E-07 0.000E+00

     total cpu time spent up to now is       20.9 secs

     total energy              =    -413.91188262 Ry
     estimated scf accuracy    <       0.00004555 Ry

     iteration #  6     ecut=    90.00 Ry     beta= 0.70
     Davidson diagonalization with overlap
     ethr =  4.74E-08,  avg # of iterations =  3.8

     negative rho (up, down):  2.642E-07 0.000E+00

     total cpu time spent up to now is       22.0 secs

     total energy              =    -413.91190096 Ry
     estimated scf accuracy    <       0.00005415 Ry

     iteration #  7     ecut=    90.00 Ry     beta= 0.70
     Davidson diagonalization with overlap
     ethr =  4.74E-08,  avg # of iterations =  2.0

     negative rho (up, down):  2.631E-07 0.000E+00

     total cpu time spent up to now is       22.9 secs

     total energy              =    -413.91191172 Ry
     estimated scf accuracy    <       0.00000038 Ry

     iteration #  8     ecut=    90.00 Ry     beta= 0.70
     Davidson diagonalization with overlap
     ethr =  4.00E-10,  avg # of iterations =  6.0

     negative rho (up, down):  2.635E-07 0.000E+00

     total cpu time spent up to now is       24.4 secs

     total energy              =    -413.91191259 Ry
     estimated scf accuracy    <       0.00000085 Ry

     iteration #  9     ecut=    90.00 Ry     beta= 0.70
     Davidson diagonalization with overlap
     ethr =  4.00E-10,  avg # of iterations =  2.0

     negative rho (up, down):  2.639E-07 0.000E+00

     total cpu time spent up to now is       25.1 secs

     total energy              =    -413.91191250 Ry
     estimated scf accuracy    <       0.00000025 Ry

     iteration # 10     ecut=    90.00 Ry     beta= 0.70
     Davidson diagonalization with overlap
     ethr =  2.60E-10,  avg # of iterations =  3.0

     negative rho (up, down):  2.639E-07 0.000E+00

     total cpu time spent up to now is       26.1 secs

     End of self-consistent calculation

          k = 0.0000 0.0000 0.0000 ( 30973 PWs)   bands (ev):

   -21.2327 -20.8489 -20.8489 -20.6423 -20.6423 -20.6297 -20.6297 -20.6165
   -20.6062 -20.3527 -20.3527 -20.0994  -8.7215  -8.5356  -8.4727  -8.4727
    -8.4714  -8.4714  -7.9817  -7.9817  -7.8917  -7.8650  -7.8650  -7.7243
    -7.0671  -6.0159  -6.0159  -5.4431  -5.4431  -5.3923  -5.3923  -5.1051
    -5.0454  -4.4004  -4.4004  -3.7756  -3.0912  -3.0912  -3.0436  -2.8778
    -2.8778  -2.8707  -2.7255  -2.7066  -2.7066  -2.6966  -2.6312  -2.6312

          k =-0.1498-0.0865 0.3111 ( 30963 PWs)   bands (ev):

   -21.1689 -20.8787 -20.8399 -20.7667 -20.7543 -20.6946 -20.5629 -20.5229
   -20.4821 -20.3616 -20.3267 -20.1478  -8.6805  -8.5701  -8.5191  -8.5036
    -8.4444  -8.3881  -8.0030  -7.9692  -7.8875  -7.8355  -7.8057  -7.7750
    -6.8769  -6.1618  -6.0505  -5.7623  -5.5390  -5.3030  -5.2284  -5.0167
    -4.9509  -4.3962  -4.3282  -3.8952  -3.1882  -3.1248  -3.0447  -2.9285
    -2.9125  -2.8752  -2.8302  -2.7463  -2.6913  -2.6462  -2.6242  -2.5785

          k = 0.2996 0.1730-0.6221 ( 30974 PWs)   bands (ev):

   -21.0149 -20.9920 -20.8721 -20.8320 -20.7667 -20.7501 -20.5176 -20.4940
   -20.3776 -20.3594 -20.2844 -20.2517  -8.6129  -8.6072  -8.5398  -8.5077
    -8.4366  -8.3749  -7.9883  -7.9497  -7.8866  -7.8727  -7.7639  -7.7532
    -6.5399  -6.4036  -6.1070  -5.9718  -5.5318  -5.4408  -5.1436  -4.9850
    -4.5990  -4.4882  -4.2713  -4.0640  -3.2736  -3.1417  -3.0470  -2.9844
    -2.9428  -2.9338  -2.8201  -2.7698  -2.7535  -2.6145  -2.5989  -2.5351

          k =-0.1498 0.0865 0.6221 ( 30985 PWs)   bands (ev):

   -21.0407 -20.9232 -20.9162 -20.8169 -20.7959 -20.7449 -20.5164 -20.4513
   -20.4229 -20.3318 -20.3162 -20.2361  -8.6226  -8.5847  -8.5700  -8.4776
    -8.4503  -8.3720  -7.9774  -7.9639  -7.9224  -7.8133  -7.7824  -7.7572
    -6.5687  -6.2971  -6.2518  -5.8216  -5.6377  -5.4801  -5.0828  -4.9022
    -4.7492  -4.3574  -4.3307  -4.0706  -3.2543  -3.1764  -3.0337  -2.9771
    -2.9589  -2.8865  -2.8591  -2.7685  -2.7408  -2.6236  -2.6027  -2.5291

          k = 0.2996 0.3460-0.3111 ( 30944 PWs)   bands (ev):

   -21.0862 -20.9588 -20.8581 -20.8434 -20.7630 -20.7124 -20.5251 -20.4530
   -20.4267 -20.3571 -20.3095 -20.2136  -8.6461  -8.6191  -8.5217  -8.4904
    -8.4475  -8.3649  -8.0572  -8.0291  -7.9364  -7.7912  -7.7644  -7.7355
    -6.6216  -6.3204  -6.0891  -5.8499  -5.8154  -5.3385  -5.0167  -4.9025
    -4.7024  -4.4736  -4.3053  -4.0353  -3.1863  -3.1249  -3.0535  -2.9882
    -2.9073  -2.8573  -2.8148  -2.7956  -2.7210  -2.6666  -2.6052  -2.5146

          k = 0.1498 0.2595 0.0000 ( 30950 PWs)   bands (ev):

   -21.1870 -20.9119 -20.8648 -20.7392 -20.7121 -20.6442 -20.5911 -20.5292
   -20.4932 -20.3620 -20.3297 -20.1371  -8.7011  -8.5793  -8.5193  -8.5027
    -8.4149  -8.4014  -8.0821  -8.0263  -7.8902  -7.8503  -7.8000  -7.7235
    -6.8993  -6.1131  -6.0086  -5.7945  -5.6809  -5.2649  -5.1174  -4.9718
    -4.8998  -4.4505  -4.3746  -3.8552  -3.0926  -3.0781  -3.0619  -2.9455
    -2.8868  -2.8645  -2.7542  -2.7377  -2.7288  -2.6901  -2.5921  -2.5799

          k = 0.2996-0.1730-1.2442 ( 30938 PWs)   bands (ev):

   -21.0749 -21.0507 -20.8781 -20.7797 -20.7175 -20.6589 -20.5522 -20.5100
   -20.4249 -20.3836 -20.2473 -20.2234  -8.6629  -8.6304  -8.5303  -8.5119
    -8.3868  -8.3681  -8.1396  -8.0675  -7.9044  -7.8440  -7.7509  -7.7276
    -6.5124  -6.4846  -6.0420  -5.9565  -5.6126  -5.3866  -5.0036  -4.8299
    -4.6704  -4.6197  -4.2208  -4.0395  -3.1084  -3.0684  -3.0608  -2.9892
    -2.8966  -2.8313  -2.8104  -2.7630  -2.7320  -2.6920  -2.5618  -2.5474

          k = 0.0000 0.0000 0.9332 ( 30966 PWs)   bands (ev):

   -20.9935 -20.9935 -20.9462 -20.8710 -20.7338 -20.7338 -20.4668 -20.4668
   -20.3785 -20.3081 -20.3075 -20.3075  -8.6229  -8.6229  -8.5588  -8.4384
    -8.4384  -8.4173  -8.0838  -7.9981  -7.9981  -7.7458  -7.7458  -7.7191
    -6.3897  -6.3897  -6.3575  -5.9039  -5.5922  -5.5922  -4.8169  -4.7680
    -4.7680  -4.3582  -4.3582  -4.2122  -3.1389  -3.1389  -3.0365  -2.9921
    -2.8810  -2.8810  -2.8359  -2.7701  -2.7701  -2.6443  -2.6443  -2.4909

          k = 0.4494 0.2595 0.0000 ( 30952 PWs)   bands (ev):

   -21.1026 -20.9634 -20.9610 -20.7770 -20.6793 -20.6549 -20.5587 -20.5428
   -20.4262 -20.3316 -20.2995 -20.2042  -8.6658  -8.6116  -8.5734  -8.4668
    -8.4214  -8.3516  -8.1514  -8.0308  -7.9577  -7.7913  -7.7680  -7.7334
    -6.6216  -6.2600  -6.1984  -5.9216  -5.6148  -5.3637  -4.9734  -4.9346
    -4.7069  -4.4418  -4.3268  -4.0165  -3.0936  -3.0841  -3.0551  -2.9945
    -2.9077  -2.8458  -2.7922  -2.7647  -2.7145  -2.6695  -2.6095  -2.5294

          k = 0.2996 0.1730 0.3111 ( 30960 PWs)   bands (ev):

   -21.1266 -20.9207 -20.8432 -20.8223 -20.7468 -20.7061 -20.5344 -20.5228
   -20.4425 -20.3597 -20.3047 -20.1770  -8.6656  -8.5963  -8.5408  -8.4829
    -8.4522  -8.3422  -8.0762  -7.9572  -7.8877  -7.8660  -7.7774  -7.7733
    -6.7298  -6.1752  -6.0451  -5.8973  -5.7077  -5.3460  -5.1237  -4.9436
    -4.7866  -4.4379  -4.3136  -3.9314  -3.2034  -3.1289  -3.0741  -2.9869
    -2.9196  -2.8715  -2.8072  -2.7652  -2.6872  -2.6515  -2.5831  -2.5644

          k = 0.4494-0.2595-0.9332 ( 30962 PWs)   bands (ev):

   -21.0201 -21.0139 -20.9001 -20.8402 -20.7396 -20.6838 -20.5651 -20.5068
   -20.3752 -20.3473 -20.2951 -20.2195  -8.6440  -8.6147  -8.5685  -8.4781
    -8.4358  -8.3106  -8.1231  -7.9768  -7.8931  -7.8717  -7.7739  -7.7605
    -6.4505  -6.3398  -6.0585  -6.0280  -5.7440  -5.3971  -5.1226  -4.8648
    -4.5439  -4.4947  -4.3431  -3.9877  -3.2080  -3.1442  -3.1082  -2.9943
    -2.9533  -2.9047  -2.7610  -2.7313  -2.7076  -2.6588  -2.5884  -2.5291

          k = 0.2996-0.3460-0.6221 ( 30944 PWs)   bands (ev):

   -20.9909 -20.9588 -20.8922 -20.8693 -20.7751 -20.7679 -20.5049 -20.4907
   -20.3734 -20.3615 -20.2843 -20.2431  -8.6491  -8.5630  -8.5369  -8.5041
    -8.4806  -8.3185  -8.0075  -7.9844  -7.8672  -7.8588  -7.7846  -7.7796
    -6.4205  -6.3022  -6.1130  -6.0554  -5.6477  -5.6085  -4.9887  -4.9173
    -4.5533  -4.5092  -4.3503  -3.9925  -3.2994  -3.1556  -3.1098  -3.0214
    -2.9849  -2.8522  -2.8124  -2.7629  -2.7429  -2.6140  -2.5971  -2.5122

          k = 0.0000 0.0000-1.8663 ( 30960 PWs)   bands (ev):

   -20.9703 -20.9132 -20.8673 -20.8673 -20.8403 -20.8403 -20.4546 -20.4546
   -20.3992 -20.3992 -20.2729 -20.2325  -8.6659  -8.5362  -8.5362  -8.5013
    -8.5013  -8.2821  -8.0280  -8.0099  -7.8353  -7.8353  -7.8203  -7.8203
    -6.3138  -6.2233  -5.9584  -5.9584  -5.9106  -5.9106  -4.8122  -4.8122
    -4.5923  -4.5923  -4.3439  -3.9430  -3.3245  -3.1526  -3.1526  -3.0518
    -3.0518  -2.8231  -2.8006  -2.7059  -2.7059  -2.6308  -2.6308  -2.4867

          k = 0.2996-0.3460 0.3111 ( 30944 PWs)   bands (ev):

   -21.0866 -20.9536 -20.8772 -20.8310 -20.7589 -20.7125 -20.5281 -20.4635
   -20.3991 -20.3809 -20.2996 -20.2157  -8.6558  -8.5956  -8.5353  -8.5085
    -8.4163  -8.3773  -8.0796  -8.0094  -7.9308  -7.7935  -7.7633  -7.7384
    -6.6280  -6.2516  -6.1893  -5.8878  -5.6798  -5.3922  -5.1276  -4.7884
    -4.6599  -4.4929  -4.3543  -4.0188  -3.1915  -3.1073  -3.0671  -2.9791
    -2.9019  -2.8720  -2.8092  -2.8037  -2.7364  -2.6372  -2.6081  -2.5215

     highest occupied level (ev):    -2.4867

!    total energy              =    -413.91191257 Ry
     estimated scf accuracy    <          1.7E-09 Ry

     The total energy is the sum of the following terms:
     one-electron contribution =    -303.74769623 Ry
     hartree contribution      =     185.29360944 Ry
     xc contribution           =    -101.72204587 Ry
     ewald contribution        =    -193.73577990 Ry

     convergence has been achieved in  10 iterations

     Forces acting on atoms (cartesian axes, Ry/au):

     atom    1 type  2   force =    -0.00249354   -0.00817034   -0.00062280
     atom    2 type  2   force =     0.00249354    0.00817034    0.00062280
     atom    3 type  2   force =     0.00832249    0.00192570   -0.00062280
     atom    4 type  2   force =    -0.00832249   -0.00192570    0.00062280
     atom    5 type  2   force =    -0.00582895    0.00624463   -0.00062280
     atom    6 type  2   force =     0.00582895   -0.00624463    0.00062280
     atom    7 type  2   force =     0.00467034   -0.01182304    0.00547894
     atom    8 type  2   force =    -0.00467034    0.01182304   -0.00547894
     atom    9 type  2   force =     0.00790389    0.00995615    0.00547894
     atom   10 type  2   force =    -0.00790389   -0.00995615   -0.00547894
     atom   11 type  2   force =    -0.01257422    0.00186689    0.00547894
     atom   12 type  2   force =     0.01257422   -0.00186689   -0.00547894
     atom   13 type  1   force =    -0.01734306    0.02173956   -0.04361598
     atom   14 type  1   force =     0.01734306   -0.02173956    0.04361598
     atom   15 type  1   force =    -0.01015548   -0.02588931   -0.04361598
     atom   16 type  1   force =     0.01015548    0.02588931    0.04361598
     atom   17 type  1   force =     0.02749854    0.00414975   -0.04361598
     atom   18 type  1   force =    -0.02749854   -0.00414975    0.04361598
     atom   19 type  1   force =     0.02063482   -0.01826781    0.03753914
     atom   20 type  1   force =    -0.02063482    0.01826781   -0.03753914
     atom   21 type  1   force =     0.00550298    0.02700418    0.03753914
     atom   22 type  1   force =    -0.00550298   -0.02700418   -0.03753914
     atom   23 type  1   force =    -0.02613780   -0.00873638    0.03753914
     atom   24 type  1   force =     0.02613780    0.00873638   -0.03753914
     atom   25 type  1   force =     0.00405140    0.01874977    0.00460724
     atom   26 type  1   force =    -0.00405140   -0.01874977   -0.00460724
     atom   27 type  1   force =    -0.01826348   -0.00586627    0.00460724
     atom   28 type  1   force =     0.01826348    0.00586627   -0.00460724
     atom   29 type  1   force =     0.01421207   -0.01288350    0.00460724
     atom   30 type  1   force =    -0.01421207    0.01288350   -0.00460724
     atom   31 type  1   force =     0.00412256   -0.01785538   -0.00600161
     atom   32 type  1   force =    -0.00412256    0.01785538    0.00600161
     atom   33 type  1   force =     0.01340193    0.01249793   -0.00600161
     atom   34 type  1   force =    -0.01340193   -0.01249793    0.00600161
     atom   35 type  1   force =    -0.01752449    0.00535744   -0.00600161
     atom   36 type  1   force =     0.01752449   -0.00535744    0.00600161

     Total force =     0.187677     Total SCF correction =     0.000040


     Computing stress (Cartesian axis) and pressure

          total   stress  (Ry/bohr**3)                   (kbar)     P=       17.49
   0.00006650   0.00000000   0.00000000            9.78        0.00        0.00
  -0.00000000   0.00006650   0.00000000           -0.00        9.78        0.00
   0.00000000   0.00000000   0.00022364            0.00        0.00       32.90

     Energy error            =      8.2E-02 Ry
     Gradient error          =      4.4E-02 Ry/Bohr

     number of scf cycles    =   2
     number of bfgs steps    =   1

     energy             old  =    -413.8298322465 Ry
     energy             new  =    -413.9119125748 Ry

     CASE: energy            _new < energy            _old

     new trust radius        =       0.0557535016 bohr
     new conv_thr            =       0.0000001000 Ry


ATOMIC_POSITIONS (crystal)
O                0.2731420981        0.0329112092        0.8584578771
O                0.7268579019        0.9670888018        0.1415420929
O                0.8584578771        0.2731420981        0.0329112092
O                0.1415420929        0.7268579019        0.9670888018
O                0.0329112092        0.8584578771        0.2731420981
O                0.9670888018        0.1415420929        0.7268579019
O                0.4722846843        0.7486443315        0.3306074343
O                0.5277153157        0.2513556685        0.6693925357
O                0.3306074343        0.4722846843        0.7486443315
O                0.6693925357        0.5277153157        0.2513556685
O                0.7486443315        0.3306074343        0.4722846843
O                0.2513556685        0.6693925357        0.5277153157
H                0.1575400114        0.0595271385        0.8028091813
H                0.8424599746        0.9404728535        0.1971908187
H                0.8028091813        0.1575400114        0.0595271385
H                0.1971908187        0.8424599746        0.9404728535
H                0.0595271385        0.8028091813        0.1575400114
H                0.9404728535        0.1971908187        0.8424599746
H                0.4189667806        0.2034036567        0.9985371595
H                0.5810332194        0.7965963583        0.0014628195
H                0.9985371595        0.4189667806        0.2034036567
H                0.0014628195        0.5810332194        0.7965963583
H                0.2034036567        0.9985371595        0.4189667806
H                0.7965963583        0.0014628195        0.5810332194
H                0.7201823469        0.4023110924        0.3977733882
H                0.2798176531        0.5976888776        0.6022266418
H                0.3977733882        0.7201823469        0.4023110924
H                0.6022266418        0.2798176531        0.5976888776
H                0.4023110924        0.3977733882        0.7201823469
H                0.5976888776        0.6022266418        0.2798176531
H                0.7416682709        0.2045607664        0.3644723960
H                0.2583317291        0.7954392186        0.6355276040
H                0.3644723960        0.7416682709        0.2045607664
H                0.6355276040        0.2583317291        0.7954392186
H                0.2045607664        0.3644723960        0.7416682709
H                0.7954392186        0.6355276040        0.2583317291



     Writing config-only to output data dir ./iceII/iceII.save/ :
     XML data file
     NEW-OLD atomic charge density approx. for the potential

     negative rho (up, down):  2.231E-07 0.000E+00

     total cpu time spent up to now is       27.3 secs

     per-process dynamical memory:    31.6 Mb

     Self-consistent Calculation

     iteration #  1     ecut=    90.00 Ry     beta= 0.70
     Davidson diagonalization with overlap
     ethr =  1.00E-06,  avg # of iterations =  6.0

     negative rho (up, down):  1.840E-07 0.000E+00

     total cpu time spent up to now is       28.8 secs

     total energy              =    -413.93830356 Ry
     estimated scf accuracy    <       0.00115785 Ry

     iteration #  2     ecut=    90.00 Ry     beta= 0.70
     Davidson diagonalization with overlap
     ethr =  1.21E-06,  avg # of iterations =  2.9

     negative rho (up, down):  1.895E-07 0.000E+00

     total cpu time spent up to now is       29.8 secs

     total energy              =    -413.93855273 Ry
     estimated scf accuracy    <       0.00022886 Ry

     iteration #  3     ecut=    90.00 Ry     beta= 0.70
     Davidson diagonalization with overlap
     ethr =  2.38E-07,  avg # of iterations =  2.2

     negative rho (up, down):  1.936E-07 0.000E+00

     total cpu time spent up to now is       30.6 secs

     total energy              =    -413.93859481 Ry
     estimated scf accuracy    <       0.00001199 Ry

     iteration #  4     ecut=    90.00 Ry     beta= 0.70
     Davidson diagonalization with overlap
     ethr =  1.25E-08,  avg # of iterations =  3.0

     negative rho (up, down):  1.913E-07 0.000E+00

     total cpu time spent up to now is       31.5 secs

     total energy              =    -413.93859668 Ry
     estimated scf accuracy    <       0.00000447 Ry

     iteration #  5     ecut=    90.00 Ry     beta= 0.70
     Davidson diagonalization with overlap
     ethr =  4.66E-09,  avg # of iterations =  2.0

     negative rho (up, down):  1.904E-07 0.000E+00

     total cpu time spent up to now is       32.3 secs

     total energy              =    -413.93859728 Ry
     estimated scf accuracy    <       0.00000018 Ry

     iteration #  6     ecut=    90.00 Ry     beta= 0.70
     Davidson diagonalization with overlap
     ethr =  1.92E-10,  avg # of iterations =  5.0

     negative rho (up, down):  1.908E-07 0.000E+00

     total cpu time spent up to now is       33.5 secs

     total energy              =    -413.93859738 Ry
     estimated scf accuracy    <       0.00000020 Ry

     iteration #  7     ecut=    90.00 Ry     beta= 0.70
     Davidson diagonalization with overlap
     ethr =  1.92E-10,  avg # of iterations =  2.0

     negative rho (up, down):  1.909E-07 0.000E+00

     total cpu time spent up to now is       34.3 secs

     End of self-consistent calculation

          k = 0.0000 0.0000 0.0000 ( 30973 PWs)   bands (ev):

   -21.1308 -20.7376 -20.7376 -20.5308 -20.5308 -20.5180 -20.5180 -20.5036
   -20.4859 -20.2281 -20.2281 -19.9769  -8.7205  -8.5468  -8.4930  -8.4930
    -8.4788  -8.4788  -8.0380  -8.0380  -7.9671  -7.9372  -7.9372  -7.8016
    -6.9756  -5.8863  -5.8863  -5.3991  -5.3991  -5.2607  -5.2607  -4.9699
    -4.9673  -4.3147  -4.3147  -3.6825  -3.0780  -3.0780  -3.0180  -2.8526
    -2.8526  -2.8368  -2.7134  -2.6731  -2.6694  -2.6694  -2.6144  -2.6144

          k =-0.1498-0.0865 0.3111 ( 30963 PWs)   bands (ev):

   -21.0667 -20.7692 -20.7306 -20.6587 -20.6352 -20.5764 -20.4523 -20.4117
   -20.3680 -20.2359 -20.2023 -20.0249  -8.6817  -8.5776  -8.5322  -8.5156
    -8.4590  -8.4041  -8.0631  -8.0312  -7.9585  -7.9039  -7.8749  -7.8466
    -6.7852  -6.0514  -5.9291  -5.6704  -5.5016  -5.2069  -5.0898  -4.9273
    -4.8119  -4.3103  -4.2423  -3.8130  -3.1691  -3.1101  -3.0205  -2.9081
    -2.8893  -2.8427  -2.8132  -2.7121  -2.6744  -2.6140  -2.6030  -2.5577

          k = 0.2996 0.1730-0.6221 ( 30974 PWs)   bands (ev):

   -20.9198 -20.8794 -20.7585 -20.7235 -20.6531 -20.6267 -20.4118 -20.3775
   -20.2740 -20.2257 -20.1624 -20.1250  -8.6177  -8.6094  -8.5516  -8.5213
    -8.4551  -8.3879  -8.0477  -8.0169  -7.9538  -7.9380  -7.8331  -7.8225
    -6.4242  -6.3153  -5.9912  -5.9079  -5.4614  -5.3935  -4.9707  -4.8446
    -4.4699  -4.4031  -4.1925  -4.0102  -3.2498  -3.1278  -3.0303  -2.9547
    -2.9140  -2.9078  -2.7978  -2.7655  -2.7180  -2.6001  -2.5584  -2.5144

          k =-0.1498 0.0865 0.6221 ( 30985 PWs)   bands (ev):

   -20.9404 -20.8170 -20.8051 -20.7054 -20.6782 -20.6259 -20.4067 -20.3407
   -20.3064 -20.2106 -20.1913 -20.1098  -8.6246  -8.5900  -8.5792  -8.4996
    -8.4613  -8.3862  -8.0398  -8.0278  -7.9873  -7.8805  -7.8518  -7.8270
    -6.4597  -6.1971  -6.1582  -5.7384  -5.5714  -5.4117  -4.9398  -4.7427
    -4.6332  -4.2809  -4.2384  -4.0174  -3.2324  -3.1575  -3.0202  -2.9414
    -2.9317  -2.8664  -2.8401  -2.7436  -2.7228  -2.6040  -2.5674  -2.5062

          k = 0.2996 0.3460-0.3111 ( 30944 PWs)   bands (ev):

   -20.9830 -20.8449 -20.7783 -20.7098 -20.6477 -20.5938 -20.4173 -20.3479
   -20.2727 -20.2682 -20.1760 -20.0919  -8.6479  -8.6203  -8.5302  -8.5006
    -8.4665  -8.3828  -8.1218  -8.0938  -8.0056  -7.8609  -7.8344  -7.8057
    -6.5251  -6.2063  -5.9756  -5.7797  -5.7421  -5.2485  -4.8526  -4.7788
    -4.6276  -4.3734  -4.2220  -3.9681  -3.1658  -3.1088  -3.0351  -2.9609
    -2.8795  -2.8294  -2.7941  -2.7730  -2.7093  -2.6478  -2.5665  -2.4901

          k = 0.1498 0.2595 0.0000 ( 30950 PWs)   bands (ev):

   -21.0842 -20.8028 -20.7551 -20.6288 -20.5996 -20.5303 -20.4763 -20.4138
   -20.3747 -20.2390 -20.2061 -20.0151  -8.7000  -8.5852  -8.5288  -8.5109
    -8.4320  -8.4217  -8.1459  -8.0883  -7.9642  -7.9181  -7.8699  -7.7989
    -6.8071  -5.9817  -5.8962  -5.7089  -5.6094  -5.1572  -5.0008  -4.8514
    -4.8163  -4.3621  -4.2950  -3.7645  -3.0781  -3.0642  -3.0405  -2.9199
    -2.8578  -2.8317  -2.7327  -2.7255  -2.7029  -2.6643  -2.5651  -2.5539

          k = 0.2996-0.1730-1.2442 ( 30938 PWs)   bands (ev):

   -20.9696 -20.9454 -20.7695 -20.6703 -20.6023 -20.5474 -20.4330 -20.3949
   -20.3001 -20.2647 -20.1273 -20.1008  -8.6622  -8.6303  -8.5369  -8.5192
    -8.4036  -8.3904  -8.2071  -8.1346  -7.9785  -7.9097  -7.8234  -7.7990
    -6.4060  -6.3915  -5.9301  -5.8733  -5.5223  -5.2692  -4.8674  -4.7417
    -4.5674  -4.5369  -4.1289  -3.9653  -3.0893  -3.0516  -3.0460  -2.9649
    -2.8656  -2.7980  -2.7873  -2.7501  -2.7139  -2.6711  -2.5343  -2.5161

          k = 0.0000 0.0000 0.9332 ( 30966 PWs)   bands (ev):

   -20.8865 -20.8865 -20.8495 -20.7506 -20.6192 -20.6192 -20.3513 -20.3513
   -20.2651 -20.1863 -20.1863 -20.1797  -8.6252  -8.6252  -8.5630  -8.4495
    -8.4495  -8.4470  -8.1472  -8.0650  -8.0650  -7.8159  -7.8159  -7.7889
    -6.2948  -6.2948  -6.2044  -5.8816  -5.4990  -5.4990  -4.6465  -4.6465
    -4.6251  -4.2843  -4.2843  -4.1752  -3.1206  -3.1206  -3.0150  -2.9776
    -2.8488  -2.8488  -2.8065  -2.7587  -2.7587  -2.6134  -2.6134  -2.4663

          k = 0.4494 0.2595 0.0000 ( 30952 PWs)   bands (ev):

   -20.9981 -20.8559 -20.8536 -20.6684 -20.5650 -20.5413 -20.4435 -20.4223
   -20.3052 -20.2127 -20.1771 -20.0825  -8.6648  -8.6132  -8.5755  -8.4784
    -8.4376  -8.3741  -8.2182  -8.0978  -8.0294  -7.8617  -7.8370  -7.8062
    -6.5249  -6.1409  -6.0982  -5.8600  -5.4992  -5.2391  -4.8763  -4.8482
    -4.5699  -4.3596  -4.2481  -3.9369  -3.0730  -3.0664  -3.0430  -2.9698
    -2.8787  -2.8172  -2.7693  -2.7472  -2.6918  -2.6482  -2.5869  -2.4960

          k = 0.2996 0.1730 0.3111 ( 30960 PWs)   bands (ev):

   -21.0235 -20.8106 -20.7395 -20.7133 -20.6261 -20.5886 -20.4244 -20.4067
   -20.3257 -20.2402 -20.1791 -20.0536  -8.6657  -8.5983  -8.5506  -8.4923
    -8.4705  -8.3602  -8.1400  -8.0204  -7.9568  -7.9389  -7.8468  -7.8432
    -6.6374  -6.0669  -5.9623  -5.7523  -5.6572  -5.2461  -4.9843  -4.8323
    -4.7177  -4.3276  -4.2304  -3.8529  -3.1842  -3.1096  -3.0528  -2.9598
    -2.8913  -2.8477  -2.7849  -2.7444  -2.6768  -2.6304  -2.5637  -2.5225

          k = 0.4494-0.2595-0.9332 ( 30962 PWs)   bands (ev):

   -20.9141 -20.9085 -20.7938 -20.7316 -20.6228 -20.5641 -20.4539 -20.3862
   -20.2586 -20.2299 -20.1758 -20.0917  -8.6398  -8.6169  -8.5728  -8.4903
    -8.4528  -8.3288  -8.1891  -8.0460  -7.9651  -7.9398  -7.8446  -7.8297
    -6.3558  -6.2434  -5.9819  -5.9217  -5.6315  -5.2594  -5.0324  -4.7777
    -4.4718  -4.3552  -4.2579  -3.9159  -3.1886  -3.1209  -3.0857  -2.9651
    -2.9245  -2.8832  -2.7458  -2.7106  -2.6987  -2.6426  -2.5649  -2.4846

          k = 0.2996-0.3460-0.6221 ( 30944 PWs)   bands (ev):

   -20.8923 -20.8475 -20.7813 -20.7668 -20.6569 -20.6443 -20.3942 -20.3764
   -20.2559 -20.2406 -20.1739 -20.1070  -8.6447  -8.5692  -8.5456  -8.5182
    -8.4952  -8.3355  -8.0693  -8.0511  -7.9363  -7.9265  -7.8544  -7.8496
    -6.3032  -6.2310  -6.0063  -5.9712  -5.5523  -5.5193  -4.8519  -4.7914
    -4.4760  -4.4353  -4.2195  -3.9416  -3.2724  -3.1350  -3.0885  -2.9922
    -2.9527  -2.8427  -2.7846  -2.7454  -2.7296  -2.5977  -2.5745  -2.4715

          k = 0.0000 0.0000-1.8663 ( 30960 PWs)   bands (ev):

   -20.8613 -20.8050 -20.7802 -20.7802 -20.7053 -20.7053 -20.3350 -20.3350
   -20.2842 -20.2842 -20.1706 -20.0902  -8.6567  -8.5404  -8.5404  -8.5168
    -8.5168  -8.3002  -8.0911  -8.0781  -7.9061  -7.9061  -7.8903  -7.8903
    -6.1965  -6.1898  -5.8409  -5.8409  -5.8070  -5.8070  -4.6694  -4.6694
    -4.5567  -4.5567  -4.1865  -3.8928  -3.2908  -3.1297  -3.1297  -3.0232
    -3.0232  -2.8013  -2.7876  -2.6968  -2.6968  -2.6094  -2.6094  -2.4399

          k = 0.2996-0.3460 0.3111 ( 30944 PWs)   bands (ev):

   -20.9821 -20.8535 -20.7574 -20.7237 -20.6468 -20.5959 -20.4105 -20.3443
   -20.3099 -20.2302 -20.1857 -20.0915  -8.6558  -8.6005  -8.5412  -8.5179
    -8.4401  -8.3919  -8.1431  -8.0752  -8.0004  -7.8619  -7.8344  -7.8082
    -6.5300  -6.1643  -6.0543  -5.7922  -5.6404  -5.2985  -4.9692  -4.6617
    -4.5496  -4.4156  -4.2762  -3.9479  -3.1723  -3.0867  -3.0509  -2.9544
    -2.8754  -2.8411  -2.7922  -2.7726  -2.7296  -2.6209  -2.5679  -2.4963

     highest occupied level (ev):    -2.4399

!    total energy              =    -413.93859741 Ry
     estimated scf accuracy    <          7.5E-09 Ry

     The total energy is the sum of the following terms:
     one-electron contribution =    -301.94514788 Ry
     hartree contribution      =     184.47916521 Ry
     xc contribution           =    -101.58683112 Ry
     ewald contribution        =    -194.88578363 Ry

     convergence has been achieved in   7 iterations

     Forces acting on atoms (cartesian axes, Ry/au):

     atom    1 type  2   force =    -0.00481216    0.00055088    0.00314383
     atom    2 type  2   force =     0.00481216   -0.00055088   -0.00314383
     atom    3 type  2   force =     0.00192900   -0.00444289    0.00314383
     atom    4 type  2   force =    -0.00192900    0.00444289   -0.00314383
     atom    5 type  2   force =     0.00288316    0.00389201    0.00314383
     atom    6 type  2   force =    -0.00288316   -0.00389201   -0.00314383
     atom    7 type  2   force =     0.00486114   -0.00757839    0.00215943
     atom    8 type  2   force =    -0.00486114    0.00757839   -0.00215943
     atom    9 type  2   force =     0.00413251    0.00799907    0.00215943
     atom   10 type  2   force =    -0.00413251   -0.00799907   -0.00215943
     atom   11 type  2   force =    -0.00899365   -0.00042067    0.00215943
     atom   12 type  2   force =     0.00899365    0.00042067   -0.00215943
     atom   13 type  1   force =    -0.00945227    0.00624267   -0.02450917
     atom   14 type  1   force =     0.00945227   -0.00624267    0.02450917
     atom   15 type  1   force =    -0.00068017   -0.01130724   -0.02450917
     atom   16 type  1   force =     0.00068017    0.01130724    0.02450917
     atom   17 type  1   force =     0.01013245    0.00506457   -0.02450917
     atom   18 type  1   force =    -0.01013245   -0.00506457    0.02450917
     atom   19 type  1   force =     0.01460989   -0.01075924    0.01556097
     atom   20 type  1   force =    -0.01460989    0.01075924   -0.01556097
     atom   21 type  1   force =     0.00201283    0.01803216    0.01556097
     atom   22 type  1   force =    -0.00201283   -0.01803216   -0.01556097
     atom   23 type  1   force =    -0.01662272   -0.00727292    0.01556097
     atom   24 type  1   force =     0.01662272    0.00727292   -0.01556097
     atom   25 type  1   force =     0.00441827    0.01314818    0.00399262
     atom   26 type  1   force =    -0.00441827   -0.01314818   -0.00399262
     atom   27 type  1   force =    -0.01359579   -0.00274776    0.00399262
     atom   28 type  1   force =     0.01359579    0.00274776   -0.00399262
     atom   29 type  1   force =     0.00917752   -0.01040042    0.00399262
     atom   30 type  1   force =    -0.00917752    0.01040042   -0.00399262
     atom   31 type  1   force =     0.00059521   -0.01090930   -0.00255565
     atom   32 type  1   force =    -0.00059521    0.01090930    0.00255565
     atom   33 type  1   force =     0.00915012    0.00597012   -0.00255565
     atom   34 type  1   force =    -0.00915012   -0.00597012    0.00255565
     atom   35 type  1   force =    -0.00974534    0.00493918   -0.00255565
     atom   36 type  1   force =     0.00974534   -0.00493918    0.00255565

     Total force =     0.102577     Total SCF correction =     0.000120


     Computing stress (Cartesian axis) and pressure

          total   stress  (Ry/bohr**3)                   (kbar)     P=        2.76
  -0.00001376  -0.00000000   0.00000000           -2.02       -0.00        0.00
   0.00000000  -0.00001376  -0.00000000            0.00       -2.02       -0.00
   0.00000000  -0.00000000   0.00008378            0.00       -0.00       12.32

     Energy error            =      2.7E-02 Ry
     Gradient error          =      2.5E-02 Ry/Bohr

     number of scf cycles    =   3
     number of bfgs steps    =   2

     energy             old  =    -413.9119125748 Ry
     energy             new  =    -413.9385974087 Ry

     CASE: energy            _new < energy            _old

     new trust radius        =       0.0613288518 bohr
     new conv_thr            =       0.0000001000 Ry


ATOMIC_POSITIONS (crystal)
O                0.2732644243        0.0351162423        0.8600591965
O                0.7267355757        0.9648837687        0.1399407735
O                0.8600591965        0.2732644243        0.0351162423
O                0.1399407735        0.7267355757        0.9648837687
O                0.0351162423        0.8600591965        0.2732644243
O                0.9648837687        0.1399407735        0.7267355757
O                0.4721144081        0.7480947057        0.3305996878
O                0.5278855919        0.2519052943        0.6694002822
O                0.3305996878        0.4721144081        0.7480947057
O                0.6694002822        0.5278855919        0.2519052943
O                0.7480947057        0.3305996878        0.4721144081
O                0.2519052943        0.6694002822        0.5278855919
H                0.1518728012        0.0547995516        0.7984507462
H                0.8481271848        0.9452004404        0.2015492538
H                0.7984507462        0.1518728012        0.0547995516
H                0.2015492538        0.8481271848        0.9452004404
H                0.0547995516        0.7984507462        0.1518728012
H                0.9452004404        0.2015492538        0.8481271848
H                0.4236184488        0.2043934555        1.0003851064
H                0.5763815512        0.7956065595       -0.0003851274
H                1.0003851064        0.4236184488        0.2043934555
H               -0.0003851274        0.5763815512        0.7956065595
H                0.2043934555        1.0003851064        0.4236184488
H                0.7956065595       -0.0003851274        0.5763815512
H                0.7207570632        0.4041389694        0.3980508855
H                0.2792429368        0.5958610006        0.6019491445
H                0.3980508855        0.7207570632        0.4041389694
H                0.6019491445        0.2792429368        0.5958610006
H                0.4041389694        0.3980508855        0.7207570632
H                0.5958610006        0.6019491445        0.2792429368
H                0.7419022726        0.2036667711        0.3653590794
H                0.2580977274        0.7963332139        0.6346409206
H                0.3653590794        0.7419022726        0.2036667711
H                0.6346409206        0.2580977274        0.7963332139
H                0.2036667711        0.3653590794        0.7419022726
H                0.7963332139        0.6346409206        0.2580977274



     Writing config-only to output data dir ./iceII/iceII.save/ :
     XML data file
     NEW-OLD atomic charge density approx. for the potential

     negative rho (up, down):  8.131E-08 0.000E+00

     total cpu time spent up to now is       35.5 secs

     per-process dynamical memory:    31.7 Mb

     Self-consistent Calculation

     iteration #  1     ecut=    90.00 Ry     beta= 0.70
     Davidson diagonalization with overlap
     ethr =  1.00E-06,  avg # of iterations =  7.0

     total cpu time spent up to now is       37.1 secs

     total energy              =    -413.95201659 Ry
     estimated scf accuracy    <       0.00133461 Ry

     iteration #  2     ecut=    90.00 Ry     beta= 0.70
     Davidson diagonalization with overlap
     ethr =  1.39E-06,  avg # of iterations =  2.9

     total cpu time spent up to now is       38.0 secs

     total energy              =    -413.95228127 Ry
     estimated scf accuracy    <       0.00022589 Ry

     iteration #  3     ecut=    90.00 Ry     beta= 0.70
     Davidson diagonalization with overlap
     ethr =  2.35E-07,  avg # of iterations =  2.9

     total cpu time spent up to now is       38.9 secs

     total energy              =    -413.95233055 Ry
     estimated scf accuracy    <       0.00001604 Ry

     iteration #  4     ecut=    90.00 Ry     beta= 0.70
     Davidson diagonalization with overlap
     ethr =  1.67E-08,  avg # of iterations =  2.0

     total cpu time spent up to now is       39.7 secs

     total energy              =    -413.95233193 Ry
     estimated scf accuracy    <       0.00000189 Ry

     iteration #  5     ecut=    90.00 Ry     beta= 0.70
     Davidson diagonalization with overlap
     ethr =  1.97E-09,  avg # of iterations =  2.9

     total cpu time spent up to now is       40.6 secs

     End of self-consistent calculation

          k = 0.0000 0.0000 0.0000 ( 30973 PWs)   bands (ev):

   -21.0455 -20.6569 -20.6569 -20.4281 -20.4281 -20.4163 -20.4163 -20.4014
   -20.3869 -20.1094 -20.1094 -19.8618  -8.7009  -8.5364  -8.5318  -8.5318
    -8.4715  -8.4715  -8.1231  -8.1231  -8.1149  -8.0830  -8.0830  -7.9615
    -6.8621  -5.7583  -5.7583  -5.3293  -5.3293  -5.1167  -5.1167  -4.8888
    -4.8163  -4.2053  -4.2053  -3.5714  -3.0583  -3.0583  -3.0016  -2.8360
    -2.8360  -2.8068  -2.6992  -2.6402  -2.6402  -2.6380  -2.5924  -2.5924

          k =-0.1498-0.0865 0.3111 ( 30963 PWs)   bands (ev):

   -20.9820 -20.6865 -20.6567 -20.5534 -20.5250 -20.4781 -20.3534 -20.3086
   -20.2693 -20.1171 -20.0846 -19.9084  -8.6647  -8.5832  -8.5437  -8.5140
    -8.4651  -8.4143  -8.1758  -8.1451  -8.1030  -8.0333  -8.0102  -7.9916
    -6.6758  -5.9378  -5.8025  -5.5677  -5.4361  -5.1189  -4.9168  -4.8323
    -4.6510  -4.2058  -4.1359  -3.7096  -3.1415  -3.0875  -3.0028  -2.8890
    -2.8746  -2.8199  -2.7873  -2.6821  -2.6564  -2.5955  -2.5707  -2.5372

          k = 0.2996 0.1730-0.6221 ( 30974 PWs)   bands (ev):

   -20.8477 -20.7821 -20.6821 -20.6136 -20.5589 -20.5195 -20.3200 -20.2675
   -20.1803 -20.1063 -20.0558 -19.9953  -8.6083  -8.6045  -8.5458  -8.5280
    -8.4620  -8.3926  -8.1731  -8.1541  -8.0906  -8.0663  -7.9687  -7.9534
    -6.2881  -6.2304  -5.8472  -5.8446  -5.3665  -5.3361  -4.7738  -4.7077
    -4.3257  -4.2935  -4.0941  -3.9378  -3.2135  -3.1050  -3.0101  -2.9329
    -2.8987  -2.8763  -2.7776  -2.7564  -2.6893  -2.5861  -2.5238  -2.4961

          k =-0.1498 0.0865 0.6221 ( 30985 PWs)   bands (ev):

   -20.8617 -20.7323 -20.7158 -20.6093 -20.5709 -20.5255 -20.3068 -20.2466
   -20.2003 -20.0981 -20.0768 -19.9851  -8.6149  -8.5808  -8.5791  -8.5106
    -8.4628  -8.3896  -8.1692  -8.1602  -8.1231  -8.0086  -7.9867  -7.9616
    -6.3426  -6.0884  -6.0510  -5.6410  -5.4928  -5.3266  -4.7842  -4.5663
    -4.4986  -4.1916  -4.1220  -3.9454  -3.1971  -3.1303  -3.0036  -2.9242
    -2.8985  -2.8498  -2.8212  -2.7248  -2.7024  -2.5852  -2.5390  -2.4842

          k = 0.2996 0.3460-0.3111 ( 30944 PWs)   bands (ev):

   -20.8990 -20.7621 -20.7014 -20.6024 -20.5387 -20.4956 -20.3193 -20.2551
   -20.1794 -20.1415 -20.0573 -19.9711  -8.6333  -8.6108  -8.5270  -8.5069
    -8.4735  -8.3888  -8.2469  -8.2217  -8.1483  -7.9946  -7.9729  -7.9419
    -6.4128  -6.0734  -5.8774  -5.7073  -5.6247  -5.1470  -4.7060  -4.6074
    -4.5469  -4.2552  -4.1175  -3.8738  -3.1367  -3.0873  -3.0152  -2.9438
    -2.8561  -2.8006  -2.7791  -2.7518  -2.6944  -2.6286  -2.5318  -2.4671

          k = 0.1498 0.2595 0.0000 ( 30950 PWs)   bands (ev):

   -20.9988 -20.7215 -20.6737 -20.5278 -20.4950 -20.4211 -20.3836 -20.3123
   -20.2779 -20.1205 -20.0854 -19.8992  -8.6806  -8.5814  -8.5437  -8.5052
    -8.4447  -8.4383  -8.2603  -8.1974  -8.1126  -8.0458  -8.0019  -7.9517
    -6.6938  -5.8369  -5.8001  -5.6037  -5.5164  -5.0344  -4.8793  -4.7306
    -4.7044  -4.2493  -4.1894  -3.6523  -3.0591  -3.0440  -3.0237  -2.9033
    -2.8379  -2.8014  -2.7225  -2.6990  -2.6796  -2.6371  -2.5372  -2.5263

          k = 0.2996-0.1730-1.2442 ( 30938 PWs)   bands (ev):

   -20.8816 -20.8639 -20.6882 -20.5694 -20.5023 -20.4353 -20.3465 -20.2907
   -20.2048 -20.1414 -20.0151 -19.9772  -8.6453  -8.6148  -8.5421  -8.5083
    -8.4152  -8.3985  -8.3392  -8.2607  -8.1294  -8.0338  -7.9671  -7.9377
    -6.2840  -6.2799  -5.8152  -5.7839  -5.4098  -5.1410  -4.7285  -4.6494
    -4.4765  -4.3931  -4.0236  -3.8568  -3.0690  -3.0327  -3.0257  -2.9502
    -2.8424  -2.7640  -2.7640  -2.7426  -2.6949  -2.6465  -2.5053  -2.4869

          k = 0.0000 0.0000 0.9332 ( 30966 PWs)   bands (ev):

   -20.7987 -20.7987 -20.7852 -20.6270 -20.5225 -20.5225 -20.2489 -20.2489
   -20.1876 -20.0706 -20.0706 -20.0414  -8.6131  -8.6131  -8.5525  -8.4701
    -8.4529  -8.4529  -8.2728  -8.2007  -8.2007  -7.9498  -7.9498  -7.9269
    -6.1822  -6.1822  -6.0238  -5.8645  -5.3966  -5.3966  -4.5127  -4.5127
    -4.4138  -4.1933  -4.1933  -4.1124  -3.0946  -3.0946  -2.9939  -2.9677
    -2.8213  -2.8213  -2.7801  -2.7485  -2.7485  -2.5831  -2.5831  -2.4435

          k = 0.4494 0.2595 0.0000 ( 30952 PWs)   bands (ev):

   -20.9126 -20.7758 -20.7670 -20.5584 -20.4777 -20.4388 -20.3429 -20.3117
   -20.2151 -20.0966 -20.0568 -19.9630  -8.6463  -8.6001  -8.5694  -8.4786
    -8.4496  -8.3809  -8.3481  -8.2259  -8.1739  -7.9995  -7.9679  -7.9510
    -6.4098  -6.0094  -5.9866  -5.7867  -5.3756  -5.1072  -4.7741  -4.7392
    -4.4269  -4.2531  -4.1459  -3.8279  -3.0515  -3.0459  -3.0255  -2.9543
    -2.8565  -2.7927  -2.7492  -2.7297  -2.6677  -2.6248  -2.5616  -2.4648

          k = 0.2996 0.1730 0.3111 ( 30960 PWs)   bands (ev):

   -20.9391 -20.7293 -20.6654 -20.6064 -20.5184 -20.4836 -20.3323 -20.3096
   -20.2099 -20.1349 -20.0595 -19.9345  -8.6484  -8.5944  -8.5513  -8.4868
    -8.4808  -8.3710  -8.2592  -8.1394  -8.0946  -8.0846  -7.9942  -7.9729
    -6.5285  -5.9606  -5.8633  -5.6127  -5.5678  -5.1440  -4.8176  -4.7221
    -4.6245  -4.2037  -4.1244  -3.7498  -3.1549  -3.0864  -3.0319  -2.9374
    -2.8739  -2.8250  -2.7635  -2.7224  -2.6637  -2.6099  -2.5446  -2.4866

          k = 0.4494-0.2595-0.9332 ( 30962 PWs)   bands (ev):

   -20.8345 -20.8218 -20.7124 -20.6245 -20.5218 -20.4644 -20.3525 -20.2863
   -20.1422 -20.1346 -20.0625 -19.9647  -8.6223  -8.6045  -8.5652  -8.4877
    -8.4550  -8.3293  -8.3186  -8.1863  -8.1140  -8.0740  -7.9866  -7.9655
    -6.2539  -6.1317  -5.8907  -5.8149  -5.4917  -5.1196  -4.9181  -4.6851
    -4.3697  -4.2157  -4.1530  -3.8134  -3.1573  -3.0955  -3.0605  -2.9436
    -2.9010  -2.8667  -2.7301  -2.6927  -2.6845  -2.6252  -2.5430  -2.4476

          k = 0.2996-0.3460-0.6221 ( 30944 PWs)   bands (ev):

   -20.8221 -20.7516 -20.7025 -20.6636 -20.5546 -20.5361 -20.3021 -20.2747
   -20.1457 -20.1212 -20.0802 -19.9742  -8.6287  -8.5624  -8.5379  -8.5216
    -8.4970  -8.3371  -8.1974  -8.1875  -8.0777  -8.0607  -7.9927  -7.9855
    -6.1830  -6.1515  -5.8994  -5.8631  -5.4429  -5.4039  -4.7067  -4.6539
    -4.3715  -4.3459  -4.0685  -3.8754  -3.2275  -3.1100  -3.0643  -2.9686
    -2.9265  -2.8330  -2.7621  -2.7300  -2.7128  -2.5827  -2.5556  -2.4371

          k = 0.0000 0.0000-1.8663 ( 30960 PWs)   bands (ev):

   -20.7932 -20.7090 -20.7090 -20.6858 -20.5905 -20.5905 -20.2490 -20.2490
   -20.1548 -20.1548 -20.0860 -19.9564  -8.6345  -8.5324  -8.5324  -8.5136
    -8.5136  -8.2942  -8.2207  -8.2200  -8.0517  -8.0517  -8.0293  -8.0293
    -6.1670  -6.0425  -5.7740  -5.7740  -5.6258  -5.6258  -4.5102  -4.5102
    -4.5015  -4.5015  -4.0257  -3.8280  -3.2328  -3.1039  -3.1039  -3.0002
    -3.0002  -2.7987  -2.7624  -2.6841  -2.6841  -2.5920  -2.5920  -2.4022

          k = 0.2996-0.3460 0.3111 ( 30944 PWs)   bands (ev):

   -20.8976 -20.7737 -20.6818 -20.6097 -20.5414 -20.4983 -20.3061 -20.2596
   -20.2022 -20.1136 -20.0686 -19.9702  -8.6389  -8.5964  -8.5407  -8.5114
    -8.4522  -8.4009  -8.2692  -8.2025  -8.1426  -7.9910  -7.9754  -7.9453
    -6.4138  -6.0745  -5.9022  -5.6802  -5.5895  -5.1945  -4.7973  -4.5228
    -4.4518  -4.2919  -4.1796  -3.8516  -3.1435  -3.0638  -3.0302  -2.9393
    -2.8523  -2.8136  -2.7751  -2.7478  -2.7176  -2.6030  -2.5333  -2.4724

     highest occupied level (ev):    -2.4022

!    total energy              =    -413.95233231 Ry
     estimated scf accuracy    <       0.00000007 Ry

     The total energy is the sum of the following terms:
     one-electron contribution =    -300.23262559 Ry
     hartree contribution      =     183.70097811 Ry
     xc contribution           =    -101.47592052 Ry
     ewald contribution        =    -195.94476431 Ry

     convergence has been achieved in   5 iterations

     Forces acting on atoms (cartesian axes, Ry/au):

     atom    1 type  2   force =    -0.00202623   -0.00422255   -0.00185515
     atom    2 type  2   force =     0.00202623    0.00422255    0.00185515
     atom    3 type  2   force =     0.00466995    0.00035651   -0.00185515
     atom    4 type  2   force =    -0.00466995   -0.00035651    0.00185515
     atom    5 type  2   force =    -0.00264372    0.00386604   -0.00185515
     atom    6 type  2   force =     0.00264372   -0.00386604    0.00185515
     atom    7 type  2   force =    -0.00207426   -0.00440283   -0.00210365
     atom    8 type  2   force =     0.00207426    0.00440283    0.00210365
     atom    9 type  2   force =     0.00485009    0.00040506   -0.00210365
     atom   10 type  2   force =    -0.00485009   -0.00040506    0.00210365
     atom   11 type  2   force =    -0.00277583    0.00399777   -0.00210365
     atom   12 type  2   force =     0.00277583   -0.00399777    0.00210365
     atom   13 type  1   force =    -0.00553050    0.00032081   -0.00615972
     atom   14 type  1   force =     0.00553050   -0.00032081    0.00615972
     atom   15 type  1   force =     0.00248742   -0.00494996   -0.00615972
     atom   16 type  1   force =    -0.00248742    0.00494996    0.00615972
     atom   17 type  1   force =     0.00304308    0.00462915   -0.00615972
     atom   18 type  1   force =    -0.00304308   -0.00462915    0.00615972
     atom   19 type  1   force =     0.00757097    0.00074247    0.00331560
     atom   20 type  1   force =    -0.00757097   -0.00074247   -0.00331560
     atom   21 type  1   force =    -0.00442848    0.00618542    0.00331560
     atom   22 type  1   force =     0.00442848   -0.00618542   -0.00331560
     atom   23 type  1   force =    -0.00314249   -0.00692789    0.00331560
     atom   24 type  1   force =     0.00314249    0.00692789   -0.00331560
     atom   25 type  1   force =     0.00227170    0.00020412    0.00365424
     atom   26 type  1   force =    -0.00227170   -0.00020412   -0.00365424
     atom   27 type  1   force =    -0.00131263    0.00186529    0.00365424
     atom   28 type  1   force =     0.00131263   -0.00186529   -0.00365424
     atom   29 type  1   force =    -0.00095907   -0.00206941    0.00365424
     atom   30 type  1   force =     0.00095907    0.00206941   -0.00365424
     atom   31 type  1   force =    -0.00305078   -0.00311977    0.00092574
     atom   32 type  1   force =     0.00305078    0.00311977   -0.00092574
     atom   33 type  1   force =     0.00422719   -0.00108216    0.00092574
     atom   34 type  1   force =    -0.00422719    0.00108216   -0.00092574
     atom   35 type  1   force =    -0.00117641    0.00420193    0.00092574
     atom   36 type  1   force =     0.00117641   -0.00420193   -0.00092574

     Total force =     0.037103     Total SCF correction =     0.000405


     Computing stress (Cartesian axis) and pressure

          total   stress  (Ry/bohr**3)                   (kbar)     P=       -9.52
  -0.00009303  -0.00000000  -0.00000000          -13.68       -0.00       -0.00
   0.00000000  -0.00009303  -0.00000000            0.00      -13.68       -0.00
   0.00000000  -0.00000000  -0.00000804            0.00       -0.00       -1.18

     Energy error            =      1.4E-02 Ry
     Gradient error          =      7.6E-03 Ry/Bohr

     number of scf cycles    =   4
     number of bfgs steps    =   3

     energy             old  =    -413.9385974087 Ry
     energy             new  =    -413.9523323119 Ry

     CASE: energy            _new < energy            _old

     new trust radius        =       0.0249453787 bohr
     new conv_thr            =       0.0000000757 Ry


ATOMIC_POSITIONS (crystal)
O                0.2731100076        0.0354090099        0.8605628913
O                0.7268899924        0.9645910011        0.1394370787
O                0.8605628913        0.2731100076        0.0354090099
O                0.1394370787        0.7268899924        0.9645910011
O                0.0354090099        0.8605628913        0.2731100076
O                0.9645910011        0.1394370787        0.7268899924
O                0.4716577784        0.7474363449        0.3305548302
O                0.5283422216        0.2525636551        0.6694451398
O                0.3305548302        0.4716577784        0.7474363449
O                0.6694451398        0.5283422216        0.2525636551
O                0.7474363449        0.3305548302        0.4716577784
O                0.2525636551        0.6694451398        0.5283422216
H                0.1495679898        0.0529037549        0.7969840701
H                0.8504319962        0.9470962371        0.2030159299
H                0.7969840701        0.1495679898        0.0529037549
H                0.2030159299        0.8504319962        0.9470962371
H                0.0529037549        0.7969840701        0.1495679898
H                0.9470962371        0.2030159299        0.8504319962
H                0.4254375977        0.2049143560        1.0007097090
H                0.5745624023        0.7950856590       -0.0007097300
H                1.0007097090        0.4254375977        0.2049143560
H               -0.0007097300        0.5745624023        0.7950856590
H                0.2049143560        1.0007097090        0.4254375977
H                0.7950856590       -0.0007097300        0.5745624023
H                0.7214293104        0.4049458290        0.3984837613
H                0.2785706896        0.5950541410        0.6015162687
H                0.3984837613        0.7214293104        0.4049458290
H                0.6015162687        0.2785706896        0.5950541410
H                0.4049458290        0.3984837613        0.7214293104
H                0.5950541410        0.6015162687        0.2785706896
H                0.7420069453        0.2034739606        0.3660568164
H                0.2579930547        0.7965260244        0.6339431836
H                0.3660568164        0.7420069453        0.2034739606
H                0.6339431836        0.2579930547        0.7965260244
H                0.2034739606        0.3660568164        0.7420069453
H                0.7965260244        0.6339431836        0.2579930547



     Writing config-only to output data dir ./iceII/iceII.save/ :
     XML data file
     NEW-OLD atomic charge density approx. for the potential

     total cpu time spent up to now is       41.8 secs

     per-process dynamical memory:    31.7 Mb

     Self-consistent Calculation

     iteration #  1     ecut=    90.00 Ry     beta= 0.70
     Davidson diagonalization with overlap
     ethr =  1.00E-06,  avg # of iterations =  4.0

     negative rho (up, down):  2.515E-08 0.000E+00

     total cpu time spent up to now is       43.1 secs

     total energy              =    -413.95408941 Ry
     estimated scf accuracy    <       0.00025959 Ry

     iteration #  2     ecut=    90.00 Ry     beta= 0.70
     Davidson diagonalization with overlap
     ethr =  2.70E-07,  avg # of iterations =  2.0

     negative rho (up, down):  3.454E-08 0.000E+00

     total cpu time spent up to now is       43.9 secs

     total energy              =    -413.95414047 Ry
     estimated scf accuracy    <       0.00001866 Ry

     iteration #  3     ecut=    90.00 Ry     beta= 0.70
     Davidson diagonalization with overlap
     ethr =  1.94E-08,  avg # of iterations =  2.0

     negative rho (up, down):  3.775E-08 0.000E+00

     total cpu time spent up to now is       44.8 secs

     total energy              =    -413.95414447 Ry
     estimated scf accuracy    <       0.00000285 Ry

     iteration #  4     ecut=    90.00 Ry     beta= 0.70
     Davidson diagonalization with overlap
     ethr =  2.97E-09,  avg # of iterations =  2.1

     negative rho (up, down):  3.853E-08 0.000E+00

     total cpu time spent up to now is       45.6 secs

     total energy              =    -413.95414502 Ry
     estimated scf accuracy    <       0.00000016 Ry

     iteration #  5     ecut=    90.00 Ry     beta= 0.70
     Davidson diagonalization with overlap
     ethr =  1.69E-10,  avg # of iterations =  2.4

     negative rho (up, down):  3.843E-08 0.000E+00

     total cpu time spent up to now is       46.5 secs

     End of self-consistent calculation

          k = 0.0000 0.0000 0.0000 ( 30973 PWs)   bands (ev):

   -21.0243 -20.6474 -20.6474 -20.4125 -20.4125 -20.3608 -20.3603 -20.3603
   -20.3595 -20.0523 -20.0523 -19.8129  -8.7156  -8.5759  -8.5508  -8.5508
    -8.4947  -8.4947  -8.1515  -8.1515  -8.1270  -8.1036  -8.1036  -7.9876
    -6.8212  -5.7180  -5.7180  -5.2987  -5.2987  -5.0686  -5.0686  -4.8638
    -4.7645  -4.1621  -4.1621  -3.5305  -3.0569  -3.0569  -2.9942  -2.8304
    -2.8304  -2.8002  -2.6946  -2.6286  -2.6256  -2.6256  -2.5876  -2.5876

          k =-0.1498-0.0865 0.3111 ( 30963 PWs)   bands (ev):

   -20.9630 -20.6760 -20.6531 -20.5161 -20.4730 -20.4463 -20.3207 -20.2783
   -20.2390 -20.0588 -20.0281 -19.8562  -8.6820  -8.6034  -8.5684  -8.5474
[...]
O                0.2492062023        0.6634739169        0.5151669951
H                0.1441777985        0.0373329110        0.7955851571
H                0.8558221875        0.9626670810        0.2044148429
H                0.7955851571        0.1441777985        0.0373329110
H                0.2044148429        0.8558221875        0.9626670810
H                0.0373329110        0.7955851571        0.1441777985
H                0.9626670810        0.2044148429        0.8558221875
H                0.4200731083        0.1873494179        0.9871841161
H                0.5799268917        0.8126505971        0.0128158629
H                0.9871841161        0.4200731083        0.1873494179
H                0.0128158629        0.5799268917        0.8126505971
H                0.1873494179        0.9871841161        0.4200731083
H                0.8126505971        0.0128158629        0.5799268917
H                0.7291366437        0.4126633431        0.4119473313
H                0.2708633563        0.5873366269        0.5880526987
H                0.4119473313        0.7291366437        0.4126633431
H                0.5880526987        0.2708633563        0.5873366269
H                0.4126633431        0.4119473313        0.7291366437
H                0.5873366269        0.5880526987        0.2708633563
H                0.7460143774        0.2102313087        0.3792864500
H                0.2539856226        0.7897686763        0.6207135500
H                0.3792864500        0.7460143774        0.2102313087
H                0.6207135500        0.2539856226        0.7897686763
H                0.2102313087        0.3792864500        0.7460143774
H                0.7897686763        0.6207135500        0.2539856226



     Writing config-only to output data dir ./iceII/iceII.save/ :
     XML data file
     NEW-OLD atomic charge density approx. for the potential

     total cpu time spent up to now is      359.1 secs

     per-process dynamical memory:    31.7 Mb

     Self-consistent Calculation

     iteration #  1     ecut=    90.00 Ry     beta= 0.70
     Davidson diagonalization with overlap
     ethr =  1.00E-06,  avg # of iterations =  2.0

     Threshold (ethr) on eigenvalues was too large:
     Diagonalizing with lowered threshold

     Davidson diagonalization with overlap
     ethr =  6.97E-10,  avg # of iterations =  5.0

     total cpu time spent up to now is      361.1 secs

     total energy              =    -413.96232884 Ry
     estimated scf accuracy    <       0.00000106 Ry

     iteration #  2     ecut=    90.00 Ry     beta= 0.70
     Davidson diagonalization with overlap
     ethr =  1.10E-09,  avg # of iterations =  2.0

     total cpu time spent up to now is      361.9 secs

     total energy              =    -413.96232898 Ry
     estimated scf accuracy    <       0.00000006 Ry

     iteration #  3     ecut=    90.00 Ry     beta= 0.70
     Davidson diagonalization with overlap
     ethr =  5.84E-11,  avg # of iterations =  2.0

     total cpu time spent up to now is      362.8 secs

     total energy              =    -413.96232899 Ry
     estimated scf accuracy    <          9.8E-09 Ry

     iteration #  4     ecut=    90.00 Ry     beta= 0.70
     Davidson diagonalization with overlap
     ethr =  1.02E-11,  avg # of iterations =  2.0

     total cpu time spent up to now is      363.6 secs

     End of self-consistent calculation

          k = 0.0000 0.0000 0.0000 ( 30973 PWs)   bands (ev):

   -21.0166 -20.6286 -20.6286 -20.4106 -20.4013 -20.4013 -20.3722 -20.3722
   -20.3346 -20.0775 -20.0775 -19.8017  -8.5999  -8.4821  -8.4387  -8.4387
    -8.4018  -8.4018  -8.1129  -8.1129  -8.0770  -8.0770  -8.0582  -8.0226
    -6.8145  -5.7802  -5.7802  -5.3145  -5.3145  -5.0346  -5.0300  -5.0300
    -4.7677  -4.1782  -4.1782  -3.4670  -3.0314  -3.0314  -2.9413  -2.8390
    -2.8390  -2.7846  -2.7330  -2.6849  -2.6849  -2.6587  -2.6115  -2.6115

          k =-0.1498-0.0865 0.3111 ( 30963 PWs)   bands (ev):

   -20.9540 -20.6549 -20.6268 -20.5276 -20.5045 -20.4482 -20.3275 -20.2714
   -20.2271 -20.0851 -20.0508 -19.8506  -8.5696  -8.4968  -8.4668  -8.4488
    -8.3957  -8.3507  -8.1550  -8.1239  -8.0875  -8.0378  -8.0034  -7.9918
    -6.6434  -5.9421  -5.8063  -5.5558  -5.4186  -5.1775  -4.8497  -4.8138
    -4.6009  -4.1868  -4.1166  -3.6103  -3.1025  -3.0501  -2.9567  -2.8976
    -2.8858  -2.8293  -2.7807  -2.6898  -2.6861  -2.6409  -2.5924  -2.5912

          k = 0.2996 0.1730-0.6221 ( 30974 PWs)   bands (ev):

   -20.8192 -20.7587 -20.6476 -20.5793 -20.5400 -20.4928 -20.2904 -20.2320
   -20.1520 -20.0694 -20.0107 -19.9420  -8.5213  -8.5163  -8.4758  -8.4619
    -8.4018  -8.3296  -8.1482  -8.1299  -8.0958  -8.0484  -7.9554  -7.9419
    -6.2845  -6.2135  -5.8597  -5.8002  -5.3822  -5.3646  -4.7121  -4.6877
    -4.2802  -4.2549  -4.0783  -3.8606  -3.1671  -3.0654  -2.9671  -2.9652
    -2.9124  -2.8357  -2.8110  -2.7533  -2.6961  -2.6339  -2.5651  -2.5557

          k =-0.1498 0.0865 0.6221 ( 30985 PWs)   bands (ev):

   -20.8360 -20.6976 -20.6874 -20.5868 -20.5458 -20.4946 -20.2796 -20.2128
   -20.1645 -20.0604 -20.0386 -19.9298  -8.5237  -8.4979  -8.4967  -8.4658
    -8.3901  -8.3290  -8.1459  -8.1343  -8.1194  -8.0055  -7.9726  -7.9458
    -6.3345  -6.0729  -6.0310  -5.6334  -5.5265  -5.3289  -4.7540  -4.5156
    -4.4565  -4.1712  -4.0874  -3.8716  -3.1566  -3.0823  -2.9786  -2.9362
    -2.8824  -2.8708  -2.8234  -2.7276  -2.7072  -2.6345  -2.5838  -2.5390

          k = 0.2996 0.3460-0.3111 ( 30944 PWs)   bands (ev):

   -20.8686 -20.7299 -20.6721 -20.5874 -20.5122 -20.4591 -20.3013 -20.2226
   -20.1353 -20.1040 -20.0154 -19.9199  -8.5375  -8.5220  -8.4536  -8.4421
    -8.3996  -8.3351  -8.2059  -8.1875  -8.1257  -8.0009  -7.9930  -7.9501
    -6.3873  -6.0582  -5.8953  -5.6900  -5.6191  -5.1430  -4.7333  -4.5642
    -4.4951  -4.2015  -4.0905  -3.8052  -3.1011  -3.0404  -2.9874  -2.9239
    -2.8723  -2.8128  -2.7865  -2.7682  -2.7000  -2.6755  -2.5586  -2.5223

          k = 0.1498 0.2595 0.0000 ( 30950 PWs)   bands (ev):

   -20.9689 -20.6902 -20.6423 -20.5143 -20.4622 -20.3982 -20.3511 -20.2919
   -20.2250 -20.0851 -20.0499 -19.8432  -8.5783  -8.4977  -8.4526  -8.4406
    -8.3778  -8.3733  -8.2092  -8.1703  -8.0884  -8.0529  -8.0161  -7.9970
    -6.6551  -5.8373  -5.8173  -5.5826  -5.5115  -5.0000  -4.8937  -4.7477
    -4.6421  -4.2078  -4.1639  -3.5657  -3.0318  -3.0146  -2.9703  -2.8844
    -2.8393  -2.8054  -2.7549  -2.7329  -2.7073  -2.6625  -2.5652  -2.5541

          k = 0.2996-0.1730-1.2442 ( 30938 PWs)   bands (ev):

   -20.8454 -20.8369 -20.6533 -20.5622 -20.4637 -20.4227 -20.2991 -20.2842
   -20.1481 -20.1045 -19.9746 -19.9269  -8.5425  -8.5217  -8.4523  -8.4445
    -8.3563  -8.3473  -8.2723  -8.2200  -8.1043  -8.0468  -8.0039  -7.9718
    -6.2721  -6.2375  -5.8222  -5.7799  -5.4264  -5.1182  -4.7230  -4.6575
    -4.4440  -4.3098  -3.9844  -3.8038  -3.0307  -3.0008  -2.9847  -2.9208
    -2.8374  -2.8029  -2.7994  -2.7417  -2.7382  -2.6653  -2.5362  -2.5154

          k = 0.0000 0.0000 0.9332 ( 30966 PWs)   bands (ev):

   -20.7622 -20.7622 -20.7592 -20.6271 -20.4875 -20.4875 -20.2313 -20.2313
   -20.1303 -20.0300 -20.0300 -19.9892  -8.5220  -8.5220  -8.4796  -8.4271
    -8.3786  -8.3786  -8.2330  -8.1658  -8.1658  -7.9671  -7.9671  -7.9363
    -6.1420  -6.1420  -6.0413  -5.8780  -5.4035  -5.4035  -4.5126  -4.5126
    -4.3316  -4.1563  -4.1563  -4.0372  -3.0535  -3.0535  -2.9714  -2.9355
    -2.8462  -2.8462  -2.7878  -2.7536  -2.7536  -2.6162  -2.6162  -2.5025

          k = 0.4494 0.2595 0.0000 ( 30952 PWs)   bands (ev):

   -20.8811 -20.7461 -20.7302 -20.5566 -20.4428 -20.4051 -20.3241 -20.2891
   -20.1571 -20.0595 -20.0175 -19.9126  -8.5449  -8.5079  -8.4827  -8.4103
    -8.3836  -8.3352  -8.2855  -8.1881  -8.1409  -8.0224  -7.9940  -7.9878
    -6.3804  -5.9896  -5.9537  -5.8173  -5.3912  -5.1005  -4.7933  -4.6844
    -4.3633  -4.2196  -4.1175  -3.7679  -3.0227  -3.0003  -2.9884  -2.9137
    -2.8710  -2.8179  -2.7805  -2.7635  -2.6914  -2.6448  -2.5813  -2.4984

          k = 0.2996 0.1730 0.3111 ( 30960 PWs)   bands (ev):

   -20.9102 -20.6975 -20.6317 -20.5869 -20.4956 -20.4572 -20.2986 -20.2794
   -20.1705 -20.0963 -20.0236 -19.8803  -8.5522  -8.5024  -8.4742  -8.4172
    -8.4105  -8.3180  -8.2147  -8.1178  -8.0958  -8.0711  -8.0148  -7.9743
    -6.5039  -5.9625  -5.8778  -5.5952  -5.5421  -5.1584  -4.7934  -4.6712
    -4.6117  -4.1598  -4.0980  -3.6771  -3.1249  -3.0306  -2.9863  -2.9490
    -2.8916  -2.8249  -2.7639  -2.7451  -2.6887  -2.6502  -2.5863  -2.5173

          k = 0.4494-0.2595-0.9332 ( 30962 PWs)   bands (ev):

   -20.8078 -20.7864 -20.6762 -20.6132 -20.4984 -20.4340 -20.3270 -20.2509
   -20.1046 -20.0893 -20.0238 -19.9159  -8.5263  -8.5080  -8.4798  -8.4174
    -8.3901  -8.2868  -8.2592  -8.1634  -8.1010  -8.0772  -8.0076  -7.9799
    -6.2596  -6.0904  -5.9287  -5.7786  -5.4835  -5.1150  -4.8988  -4.6333
    -4.3670  -4.1392  -4.1160  -3.7799  -3.1296  -3.0393  -3.0104  -2.9550
    -2.9220  -2.8519  -2.7615  -2.7230  -2.6907  -2.6624  -2.5832  -2.4765

          k = 0.2996-0.3460-0.6221 ( 30944 PWs)   bands (ev):

   -20.7937 -20.7258 -20.6694 -20.6390 -20.5262 -20.5098 -20.2723 -20.2453
   -20.1096 -20.0828 -20.0346 -19.9252  -8.5292  -8.4833  -8.4624  -8.4519
    -8.4252  -8.2934  -8.1692  -8.1525  -8.0885  -8.0567  -7.9831  -7.9725
    -6.2025  -6.1530  -5.8848  -5.8316  -5.4264  -5.3880  -4.6987  -4.6369
    -4.3270  -4.2979  -4.0003  -3.8484  -3.1899  -3.0579  -3.0133  -2.9941
    -2.9295  -2.8660  -2.7542  -2.7314  -2.7127  -2.6346  -2.6141  -2.4772

          k = 0.0000 0.0000-1.8663 ( 30960 PWs)   bands (ev):

   -20.7662 -20.6711 -20.6709 -20.6709 -20.5682 -20.5682 -20.2146 -20.2146
   -20.1194 -20.1194 -20.0410 -19.9088  -8.5289  -8.4467  -8.4467  -8.4446
    -8.4446  -8.2717  -8.1900  -8.1686  -8.0696  -8.0696  -8.0131  -8.0131
    -6.2205  -6.0465  -5.7368  -5.7368  -5.5990  -5.5990  -4.5095  -4.5095
    -4.4446  -4.4446  -3.9383  -3.8274  -3.1881  -3.0449  -3.0449  -3.0287
    -3.0287  -2.8390  -2.7114  -2.6788  -2.6788  -2.6717  -2.6717  -2.4368

          k = 0.2996-0.3460 0.3111 ( 30944 PWs)   bands (ev):

   -20.8675 -20.7406 -20.6498 -20.6014 -20.5120 -20.4598 -20.2952 -20.2210
   -20.1627 -20.0673 -20.0320 -19.9186  -8.5453  -8.5052  -8.4630  -8.4401
    -8.4016  -8.3350  -8.2179  -8.1774  -8.1226  -8.0067  -7.9820  -7.9562
    -6.3888  -6.0634  -5.9067  -5.6561  -5.6015  -5.1933  -4.7917  -4.4963
    -4.4082  -4.2539  -4.1381  -3.7847  -3.1086  -3.0143  -2.9994  -2.9258
    -2.8715  -2.8182  -2.7856  -2.7625  -2.7322  -2.6453  -2.5628  -2.5230

     highest occupied level (ev):    -2.4368

!    total energy              =    -413.96232900 Ry
     estimated scf accuracy    <          4.8E-10 Ry

     The total energy is the sum of the following terms:
     one-electron contribution =    -298.12896975 Ry
     hartree contribution      =     182.70773988 Ry
     xc contribution           =    -101.44075171 Ry
     ewald contribution        =    -197.10034741 Ry

     convergence has been achieved in   4 iterations

     Forces acting on atoms (cartesian axes, Ry/au):

     atom    1 type  2   force =    -0.00002422    0.00000796    0.00001402
     atom    2 type  2   force =     0.00002422   -0.00000796   -0.00001402
     atom    3 type  2   force =     0.00000522   -0.00002496    0.00001402
     atom    4 type  2   force =    -0.00000522    0.00002496   -0.00001402
     atom    5 type  2   force =     0.00001901    0.00001700    0.00001402
     atom    6 type  2   force =    -0.00001901   -0.00001700   -0.00001402
     atom    7 type  2   force =    -0.00010276   -0.00005056    0.00000702
     atom    8 type  2   force =     0.00010276    0.00005056   -0.00000702
     atom    9 type  2   force =     0.00009517   -0.00006372    0.00000702
     atom   10 type  2   force =    -0.00009517    0.00006372   -0.00000702
     atom   11 type  2   force =     0.00000760    0.00011428    0.00000702
     atom   12 type  2   force =    -0.00000760   -0.00011428   -0.00000702
     atom   13 type  1   force =     0.00001805   -0.00013587    0.00009308
     atom   14 type  1   force =    -0.00001805    0.00013587   -0.00009308
     atom   15 type  1   force =     0.00010865    0.00008356    0.00009308
     atom   16 type  1   force =    -0.00010865   -0.00008356   -0.00009308
     atom   17 type  1   force =    -0.00012669    0.00005231    0.00009308
     atom   18 type  1   force =     0.00012669   -0.00005231   -0.00009308
     atom   19 type  1   force =    -0.00010469    0.00006946   -0.00008778
     atom   20 type  1   force =     0.00010469   -0.00006946    0.00008778
     atom   21 type  1   force =    -0.00000781   -0.00012539   -0.00008778
     atom   22 type  1   force =     0.00000781    0.00012539    0.00008778
     atom   23 type  1   force =     0.00011250    0.00005593   -0.00008778
     atom   24 type  1   force =    -0.00011250   -0.00005593    0.00008778
     atom   25 type  1   force =    -0.00002826   -0.00010694   -0.00005590
     atom   26 type  1   force =     0.00002826    0.00010694    0.00005590
     atom   27 type  1   force =     0.00010674    0.00002899   -0.00005590
     atom   28 type  1   force =    -0.00010674   -0.00002899    0.00005590
     atom   29 type  1   force =    -0.00007848    0.00007794   -0.00005590
     atom   30 type  1   force =     0.00007848   -0.00007794    0.00005590
     atom   31 type  1   force =    -0.00005347    0.00003819    0.00003118
     atom   32 type  1   force =     0.00005347   -0.00003819   -0.00003118
     atom   33 type  1   force =    -0.00000634   -0.00006540    0.00003118
     atom   34 type  1   force =     0.00000634    0.00006540   -0.00003118
     atom   35 type  1   force =     0.00005981    0.00002721    0.00003118
     atom   36 type  1   force =    -0.00005981   -0.00002721   -0.00003118

     Total force =     0.000717     Total SCF correction =     0.000032


     Computing stress (Cartesian axis) and pressure

          total   stress  (Ry/bohr**3)                   (kbar)     P=      -12.57
  -0.00010067  -0.00000000   0.00000000          -14.81       -0.00        0.00
   0.00000000  -0.00010067  -0.00000000            0.00      -14.81       -0.00
  -0.00000000  -0.00000000  -0.00005500           -0.00       -0.00       -8.09

     Energy error            =      1.2E-06 Ry
     Gradient error          =      1.4E-04 Ry/Bohr

     number of scf cycles    =  50
     number of bfgs steps    =  49

     energy             old  =    -413.9623278046 Ry
     energy             new  =    -413.9623289960 Ry

     CASE: energy            _new < energy            _old

     new trust radius        =       0.0015482193 bohr

     The maximum number of steps has been reached.

     End of BFGS Geometry Optimization

ATOMIC_POSITIONS (crystal)
O                0.2666178388        0.0176414646        0.8561442343
O                0.7333821612        0.9823585464        0.1438557357
O                0.8561442343        0.2666178388        0.0176414646
O                0.1438557357        0.7333821612        0.9823585464
O                0.0176414646        0.8561442343        0.2666178388
O                0.9823585464        0.1438557357        0.7333821612
O                0.4848562113        0.7507615254        0.3365244414
O                0.5151437887        0.2492384746        0.6634755286
O                0.3365244414        0.4848562113        0.7507615254
O                0.6634755286        0.5151437887        0.2492384746
O                0.7507615254        0.3365244414        0.4848562113
O                0.2492384746        0.6634755286        0.5151437887
H                0.1441926558        0.0372347813        0.7955814216
H                0.8558073302        0.9627652107        0.2044185784
H                0.7955814216        0.1441926558        0.0372347813
H                0.2044185784        0.8558073302        0.9627652107
H                0.0372347813        0.7955814216        0.1441926558
H                0.9627652107        0.2044185784        0.8558073302
H                0.4200812874        0.1873454124        0.9872296012
H                0.5799187126        0.8126546026        0.0127703778
H                0.9872296012        0.4200812874        0.1873454124
H                0.0127703778        0.5799187126        0.8126546026
H                0.1873454124        0.9872296012        0.4200812874
H                0.8126546026        0.0127703778        0.5799187126
H                0.7290548528        0.4126119725        0.4119237351
H                0.2709451472        0.5873879975        0.5880762949
H                0.4119237351        0.7290548528        0.4126119725
H                0.5880762949        0.2709451472        0.5873879975
H                0.4126119725        0.4119237351        0.7290548528
H                0.5873879975        0.5880762949        0.2709451472
H                0.7460205755        0.2102529970        0.3793366588
H                0.2539794245        0.7897469880        0.6206633412
H                0.3793366588        0.7460205755        0.2102529970
H                0.6206633412        0.2539794245        0.7897469880
H                0.2102529970        0.3793366588        0.7460205755
H                0.7897469880        0.6206633412        0.2539794245



     Writing config-only to output data dir ./iceII/iceII.save/ :
     XML data file
     NEW-OLD atomic charge density approx. for the potential

     Writing all to output data dir ./iceII/iceII.save/ :
     XML data file, charge density, pseudopotentials, collected wavefunctions

     init_run     :      1.22s CPU      1.29s WALL (       1 calls)
     electrons    :    300.55s CPU    305.27s WALL (      50 calls)
     update_pot   :      1.46s CPU      1.52s WALL (      50 calls)
     forces       :      6.79s CPU      6.84s WALL (      50 calls)
     stress       :     45.63s CPU     45.68s WALL (      50 calls)

     Called by init_run:
     wfcinit      :      0.36s CPU      0.37s WALL (       1 calls)
     potinit      :      0.03s CPU      0.05s WALL (       1 calls)
     hinit0       :      0.66s CPU      0.68s WALL (       1 calls)

     Called by electrons:
     c_bands      :    253.66s CPU    256.03s WALL (     325 calls)
     sum_band     :     36.76s CPU     37.00s WALL (     325 calls)
     v_of_rho     :      7.95s CPU      8.12s WALL (     345 calls)
     newd         :      1.26s CPU      1.27s WALL (     345 calls)
     mix_rho      :      0.93s CPU      0.93s WALL (     325 calls)

     Called by c_bands:
     init_us_2    :      4.51s CPU      4.70s WALL (    3004 calls)
     cegterg      :    245.37s CPU    246.93s WALL (    1300 calls)

     Called by *egterg:
     cdiaghg      :     18.15s CPU     18.20s WALL (    4658 calls)
     h_psi        :    186.00s CPU    187.42s WALL (    4982 calls)
     s_psi        :      8.08s CPU      8.10s WALL (    4982 calls)
     g_psi        :      0.52s CPU      0.52s WALL (    3678 calls)

     Called by h_psi:
     h_psi:calbec :     13.03s CPU     13.11s WALL (    4982 calls)
     vloc_psi     :    163.46s CPU    164.78s WALL (    4982 calls)
     add_vuspsi   :      8.17s CPU      8.20s WALL (    4982 calls)

     General routines
     calbec       :     19.14s CPU     19.25s WALL (    7282 calls)
     fft          :      5.37s CPU      5.53s WALL (    4276 calls)
     ffts         :      0.38s CPU      0.38s WALL (     325 calls)
     fftw         :    170.63s CPU    171.90s WALL (  443080 calls)
     davcio       :      0.00s CPU      0.00s WALL (       4 calls)

     Parallel routines

     PWSCF        :   5m59.38s CPU   6m 5.53s WALL


   This run was terminated on:  19:19:40  31Mar2026            

=------------------------------------------------------------------------------=
   JOB DONE.
=------------------------------------------------------------------------------=
