
     Program PWSCF v.7.3.1 starts on 23Mar2026 at 18: 0: 6 

     This program is part of the open-source Quantum ESPRESSO suite
     for quantum simulation of materials; please cite
         "P. Giannozzi et al., J. Phys.:Condens. Matter 21 395502 (2009);
         "P. Giannozzi et al., J. Phys.:Condens. Matter 29 465901 (2017);
         "P. Giannozzi et al., J. Chem. Phys. 152 154105 (2020);
          URL http://www.quantum-espresso.org", 
     in publications or presentations arising from this work. More details at
     http://www.quantum-espresso.org/quote

     Parallel version (MPI), running on   128 processors

     MPI processes distributed on     1 nodes
     242817 MiB available memory on the printing compute node when the environment starts

     Waiting for input...
     Reading input from standard input

     Current dimensions of program PWSCF are:
     Max number of different atomic species (ntypx) = 10
     Max number of k-points (npk) =  40000
     Max angular momentum in pseudopotentials (lmaxx) =  4

     K-points division:     npool     =       4
     R & G space division:  proc/nbgrp/npool/nimage =      32
     Subspace diagonalization in iterative solution of the eigenvalue problem:
     a serial algorithm will be used


     Parallelization info
     --------------------
     sticks:   dense  smooth     PW     G-vecs:    dense   smooth      PW
     Min         183     183     53                 7760     7760    1232
     Max         184     184     54                 7763     7763    1236
     Sum        5879    5879   1727               248377   248377   39511

     Using Slab Decomposition



     bravais-lattice index     =            5
     lattice parameter (alat)  =      14.9373  a.u.
     unit-cell volume          =    2153.3212 (a.u.)^3
     number of atoms/cell      =           36
     number of atomic types    =            2
     number of electrons       =        96.00
     number of Kohn-Sham states=           48
     kinetic-energy cutoff     =      90.0000  Ry
     charge density cutoff     =     360.0000  Ry
     scf convergence threshold =      1.0E-07
     mixing beta               =       0.7000
     number of iterations used =            8  plain     mixing
     Exchange-correlation=  SLA  PW   PBE  PBE
                           (   1   4   3   4   0   0   0)

     celldm(1)=  14.937301  celldm(2)=   0.000000  celldm(3)=   0.000000
     celldm(4)=  -0.392337  celldm(5)=   0.000000  celldm(6)=   0.000000

     crystal axes: (cart. coord. in units of alat)
               a(1) = (   0.834367  -0.481722   0.267909 )  
               a(2) = (   0.000000   0.963444   0.267909 )  
               a(3) = (  -0.834367  -0.481722   0.267909 )  

     reciprocal axes: (cart. coord. in units 2 pi/alat)
               b(1) = (  0.599257 -0.345981  1.244203 )  
               b(2) = (  0.000000  0.691962  1.244203 )  
               b(3) = ( -0.599257 -0.345981  1.244203 )  


     PseudoPot. # 1 for H  read from file:
     ./H.pbe-van_ak.UPF
     MD5 check sum: 077eb6d537518a38cb46c6de387227b7
     Pseudo is Ultrasoft, Zval =  1.0
     Generated by new atomic code, or converted to UPF format
     Using radial grid of  615 points,  1 beta functions with: 
                l(1) =   0
     Q(r) pseudized with  8 coefficients,  rinner =    0.800

     PseudoPot. # 2 for O  read from file:
     ./O.pbe-van_ak.UPF
     MD5 check sum: 78c19812648e8988a0fe644b0f25305e
     Pseudo is Ultrasoft, Zval =  6.0
     Generated by new atomic code, or converted to UPF format
     Using radial grid of  737 points,  4 beta functions with: 
                l(1) =   0
                l(2) =   0
                l(3) =   1
                l(4) =   1
     Q(r) pseudized with  8 coefficients,  rinner =    0.800   0.800   0.800


     atomic species   valence    mass     pseudopotential
     H                 1.00     1.00800     H ( 1.00)
     O                 6.00    16.00000     O ( 1.00)

      6 Sym. Ops., with inversion, found



   Cartesian axes

     site n.     atom                  positions (alat units)
         1        O      tau(   1) = (  -0.4910119  -0.5205722   0.3052394  )
         2        O      tau(   2) = (   0.4910119   0.5205722   0.4984877  )
         3        O      tau(   3) = (   0.6963347  -0.1649427   0.3052394  )
         4        O      tau(   4) = (  -0.6963347   0.1649427   0.4984877  )
         5        O      tau(   5) = (  -0.2053228   0.6855149   0.3052394  )
         6        O      tau(   6) = (   0.2053228  -0.6855149   0.4984877  )
         7        O      tau(   7) = (   0.1229870   0.3303028   0.4196306  )
         8        O      tau(   8) = (  -0.1229870  -0.3303028   0.3840965  )
         9        O      tau(   9) = (  -0.3475441  -0.0586415   0.4196306  )
        10        O      tau(  10) = (   0.3475441   0.0586415   0.3840965  )
        11        O      tau(  11) = (   0.2245571  -0.2716613   0.4196306  )
        12        O      tau(  12) = (  -0.2245571   0.2716612   0.3840965  )
        13        H      tau(  13) = (  -0.5446961  -0.4126715   0.2597134  )
        14        H      tau(  14) = (   0.5446961   0.4126715   0.5440137  )
        15        H      tau(  15) = (   0.6297321  -0.2653849   0.2597134  )
        16        H      tau(  16) = (  -0.6297321   0.2653849   0.5440137  )
        17        H      tau(  17) = (  -0.0850360   0.6780564   0.2597134  )
        18        H      tau(  18) = (   0.0850360  -0.6780564   0.5440137  )
        19        H      tau(  19) = (  -0.4726389  -0.4926041   0.4288765  )
        20        H      tau(  20) = (   0.4726389   0.4926042   0.3748506  )
        21        H      tau(  21) = (   0.6629272  -0.1630152   0.4288765  )
        22        H      tau(  22) = (  -0.6629272   0.1630152   0.3748506  )
        23        H      tau(  23) = (  -0.1902883   0.6556194   0.4288765  )
        24        H      tau(  24) = (   0.1902883  -0.6556194   0.3748506  )
        25        H      tau(  25) = (   0.2676988  -0.1507235   0.4151121  )
        26        H      tau(  26) = (  -0.2676988   0.1507234   0.3886151  )
        27        H      tau(  27) = (  -0.0033191   0.3071957   0.4151121  )
        28        H      tau(  28) = (   0.0033191  -0.3071957   0.3886151  )
        29        H      tau(  29) = (  -0.2643797  -0.1564722   0.4151121  )
        30        H      tau(  30) = (   0.2643797   0.1564723   0.3886151  )
        31        H      tau(  31) = (   0.3102941  -0.3416444   0.3555952  )
        32        H      tau(  32) = (  -0.3102941   0.3416444   0.4481319  )
        33        H      tau(  33) = (   0.1407257   0.4395448   0.3555952  )
        34        H      tau(  34) = (  -0.1407257  -0.4395448   0.4481319  )
        35        H      tau(  35) = (  -0.4510198  -0.0979003   0.3555952  )
        36        H      tau(  36) = (   0.4510198   0.0979003   0.4481319  )

     number of k points=    14
                       cart. coord. in units 2pi/alat
        k(    1) = (   0.0000000   0.0000000   0.0000000), wk =   0.0312500
        k(    2) = (  -0.1498141  -0.0864952   0.3110508), wk =   0.1875000
        k(    3) = (   0.2996283   0.1729905  -0.6221017), wk =   0.0937500
        k(    4) = (  -0.1498141   0.0864952   0.6221017), wk =   0.1875000
        k(    5) = (   0.2996283   0.3459809  -0.3110508), wk =   0.1875000
        k(    6) = (   0.1498141   0.2594857   0.0000000), wk =   0.1875000
        k(    7) = (   0.2996283  -0.1729905  -1.2442034), wk =   0.0937500
        k(    8) = (   0.0000000   0.0000000   0.9331525), wk =   0.0625000
        k(    9) = (   0.4494424   0.2594857   0.0000000), wk =   0.1875000
        k(   10) = (   0.2996283   0.1729905   0.3110508), wk =   0.1875000
        k(   11) = (   0.4494424  -0.2594857  -0.9331525), wk =   0.1875000
        k(   12) = (   0.2996283  -0.3459809  -0.6221017), wk =   0.1875000
        k(   13) = (   0.0000000   0.0000000  -1.8663050), wk =   0.0312500
        k(   14) = (   0.2996283  -0.3459809   0.3110508), wk =   0.1875000

     Dense  grid:   248377 G-vectors     FFT dimensions: (  96,  96,  96)

     Estimated max dynamical RAM per process >      16.33 MB

     Estimated total dynamical RAM >       1.86 GB

     Initial potential from superposition of free atoms

     starting charge      95.9998, renormalised to      96.0000
     Starting wfcs are   72 randomized atomic wfcs

     total cpu time spent up to now is        1.5 secs

     per-process dynamical memory:    20.4 Mb

     Self-consistent Calculation

     iteration #  1     ecut=    90.00 Ry     beta= 0.70
     Davidson diagonalization with overlap
     ethr =  1.00E-02,  avg # of iterations =  2.0

     total cpu time spent up to now is        2.4 secs

     total energy              =    -412.32812323 Ry
     estimated scf accuracy    <       3.85682152 Ry

     iteration #  2     ecut=    90.00 Ry     beta= 0.70
     Davidson diagonalization with overlap
     ethr =  4.02E-03,  avg # of iterations =  3.0

     total cpu time spent up to now is        3.5 secs

     total energy              =    -413.54347675 Ry
     estimated scf accuracy    <       2.50013087 Ry

     iteration #  3     ecut=    90.00 Ry     beta= 0.70
     Davidson diagonalization with overlap
     ethr =  2.60E-03,  avg # of iterations =  2.0

     total cpu time spent up to now is        4.3 secs

     total energy              =    -413.86233661 Ry
     estimated scf accuracy    <       0.10533348 Ry

     iteration #  4     ecut=    90.00 Ry     beta= 0.70
     Davidson diagonalization with overlap
     ethr =  1.10E-04,  avg # of iterations =  4.0

     total cpu time spent up to now is        5.5 secs

     total energy              =    -413.94451396 Ry
     estimated scf accuracy    <       0.12880998 Ry

     iteration #  5     ecut=    90.00 Ry     beta= 0.70
     Davidson diagonalization with overlap
     ethr =  1.10E-04,  avg # of iterations =  2.0

     negative rho (up, down):  1.037E-07 0.000E+00

     total cpu time spent up to now is        6.3 secs

     total energy              =    -413.94859711 Ry
     estimated scf accuracy    <       0.01907635 Ry

     iteration #  6     ecut=    90.00 Ry     beta= 0.70
     Davidson diagonalization with overlap
     ethr =  1.99E-05,  avg # of iterations =  2.0

     negative rho (up, down):  2.439E-07 0.000E+00

     total cpu time spent up to now is        7.1 secs

     total energy              =    -413.94897287 Ry
     estimated scf accuracy    <       0.00394909 Ry

     iteration #  7     ecut=    90.00 Ry     beta= 0.70
     Davidson diagonalization with overlap
     ethr =  4.11E-06,  avg # of iterations =  3.0

     negative rho (up, down):  2.333E-07 0.000E+00

     total cpu time spent up to now is        8.1 secs

     total energy              =    -413.95151111 Ry
     estimated scf accuracy    <       0.00117089 Ry

     iteration #  8     ecut=    90.00 Ry     beta= 0.70
     Davidson diagonalization with overlap
     ethr =  1.22E-06,  avg # of iterations =  2.0

     negative rho (up, down):  1.627E-07 0.000E+00

     total cpu time spent up to now is        8.9 secs

     total energy              =    -413.95086877 Ry
     estimated scf accuracy    <       0.00170562 Ry

     iteration #  9     ecut=    90.00 Ry     beta= 0.70
     Davidson diagonalization with overlap
     ethr =  1.22E-06,  avg # of iterations =  2.0

     negative rho (up, down):  1.379E-07 0.000E+00

     total cpu time spent up to now is        9.7 secs

     total energy              =    -413.95091317 Ry
     estimated scf accuracy    <       0.00023385 Ry

     iteration # 10     ecut=    90.00 Ry     beta= 0.70
     Davidson diagonalization with overlap
     ethr =  2.44E-07,  avg # of iterations =  2.0

     negative rho (up, down):  1.351E-07 0.000E+00

     total cpu time spent up to now is       10.5 secs

     total energy              =    -413.95097566 Ry
     estimated scf accuracy    <       0.00000557 Ry

     iteration # 11     ecut=    90.00 Ry     beta= 0.70
     Davidson diagonalization with overlap
     ethr =  5.80E-09,  avg # of iterations =  5.0

     negative rho (up, down):  1.389E-07 0.000E+00

     total cpu time spent up to now is       11.8 secs

     total energy              =    -413.95098376 Ry
     estimated scf accuracy    <       0.00000729 Ry

     iteration # 12     ecut=    90.00 Ry     beta= 0.70
     Davidson diagonalization with overlap
     ethr =  5.80E-09,  avg # of iterations =  1.2

     negative rho (up, down):  1.457E-07 0.000E+00

     total cpu time spent up to now is       12.5 secs

     total energy              =    -413.95098293 Ry
     estimated scf accuracy    <       0.00000173 Ry

     iteration # 13     ecut=    90.00 Ry     beta= 0.70
     Davidson diagonalization with overlap
     ethr =  1.80E-09,  avg # of iterations =  3.0

     negative rho (up, down):  1.434E-07 0.000E+00

     total cpu time spent up to now is       13.5 secs

     total energy              =    -413.95098405 Ry
     estimated scf accuracy    <       0.00000222 Ry

     iteration # 14     ecut=    90.00 Ry     beta= 0.70
     Davidson diagonalization with overlap
     ethr =  1.80E-09,  avg # of iterations =  1.0

     negative rho (up, down):  1.418E-07 0.000E+00

     total cpu time spent up to now is       14.2 secs

     total energy              =    -413.95098390 Ry
     estimated scf accuracy    <       0.00000078 Ry

     iteration # 15     ecut=    90.00 Ry     beta= 0.70
     Davidson diagonalization with overlap
     ethr =  8.13E-10,  avg # of iterations =  2.0

     negative rho (up, down):  1.407E-07 0.000E+00

     total cpu time spent up to now is       15.0 secs

     End of self-consistent calculation

          k = 0.0000 0.0000 0.0000 ( 31057 PWs)   bands (ev):

   -20.8500 -20.4418 -20.4418 -20.2378 -20.2378 -20.2309 -20.1912 -20.1912
   -20.1649 -19.9066 -19.9066 -19.6194  -8.4607  -8.3465  -8.3219  -8.3219
    -8.2593  -8.2593  -7.9601  -7.9601  -7.9433  -7.9433  -7.9353  -7.8894
    -6.8264  -5.7715  -5.7715  -5.2689  -5.2689  -5.0165  -5.0165  -4.9737
    -4.7374  -4.1308  -4.1308  -3.4146  -2.9968  -2.9968  -2.9137  -2.8179
    -2.8179  -2.7597  -2.6975  -2.6809  -2.6809  -2.6182  -2.5766  -2.5766

          k =-0.1498-0.0865 0.3111 ( 31055 PWs)   bands (ev):

   -20.7850 -20.4726 -20.4349 -20.3649 -20.3335 -20.2728 -20.1526 -20.0998
   -20.0483 -19.9139 -19.8772 -19.6709  -8.4287  -8.3671  -8.3370  -8.3172
    -8.2562  -8.2148  -8.0186  -7.9842  -7.9558  -7.9029  -7.8671  -7.8499
    -6.6515  -5.9347  -5.7986  -5.5298  -5.3637  -5.1200  -4.8469  -4.7798
    -4.5807  -4.1350  -4.0667  -3.5604  -3.0699  -3.0165  -2.9324  -2.8780
    -2.8616  -2.8033  -2.7471  -2.6783  -2.6526  -2.6200  -2.5745  -2.5628

          k = 0.2996 0.1730-0.6221 ( 31054 PWs)   bands (ev):

   -20.6331 -20.5977 -20.4581 -20.4207 -20.3558 -20.3235 -20.1114 -20.0679
   -19.9647 -19.8985 -19.8280 -19.7731  -8.3849  -8.3800  -8.3371  -8.3264
    -8.2634  -8.1939  -8.0182  -7.9986  -7.9632  -7.9137  -7.8125  -7.7987
    -6.2994  -6.2043  -5.8313  -5.7906  -5.3345  -5.2992  -4.7138  -4.6706
    -4.2474  -4.2083  -4.0323  -3.8033  -3.1356  -3.0331  -2.9448  -2.9419
    -2.8848  -2.8134  -2.7852  -2.7135  -2.6843  -2.6073  -2.5457  -2.5412

          k =-0.1498 0.0865 0.6221 ( 31081 PWs)   bands (ev):

   -20.6584 -20.5215 -20.5131 -20.4082 -20.3799 -20.3196 -20.1059 -20.0328
   -19.9901 -19.8834 -19.8622 -19.7573  -8.3880  -8.3634  -8.3564  -8.3299
    -8.2522  -8.1897  -8.0157  -8.0028  -7.9941  -7.8628  -7.8315  -7.8046
    -6.3420  -6.0663  -6.0253  -5.6054  -5.4707  -5.2778  -4.7437  -4.5039
    -4.4277  -4.1193  -4.0399  -3.8188  -3.1247  -3.0533  -2.9482  -2.9121
    -2.8590  -2.8467  -2.7979  -2.6938  -2.6869  -2.6153  -2.5630  -2.5232

          k = 0.2996 0.3460-0.3111 ( 31053 PWs)   bands (ev):

   -20.6956 -20.5493 -20.4900 -20.4197 -20.3490 -20.2847 -20.1242 -20.0369
   -19.9507 -19.9385 -19.8409 -19.7463  -8.3997  -8.3895  -8.3179  -8.3103
    -8.2587  -8.2015  -8.0817  -8.0568  -7.9977  -7.8610  -7.8502  -7.8053
    -6.3838  -6.0553  -5.8775  -5.6453  -5.6089  -5.0946  -4.7002  -4.5535
    -4.4472  -4.1559  -4.0434  -3.7588  -3.0668  -3.0127  -2.9583  -2.8963
    -2.8546  -2.7915  -2.7607  -2.7396  -2.6674  -2.6548  -2.5442  -2.4973

          k = 0.1498 0.2595 0.0000 ( 31030 PWs)   bands (ev):

   -20.8008 -20.5057 -20.4567 -20.3477 -20.2967 -20.2309 -20.1702 -20.1083
   -20.0448 -19.9147 -19.8803 -19.6631  -8.4402  -8.3667  -8.3292  -8.3078
    -8.2444  -8.2372  -8.0777  -8.0324  -7.9629  -7.9068  -7.8804  -7.8537
    -6.6575  -5.8309  -5.7810  -5.5540  -5.5111  -4.9602  -4.8406  -4.7027
    -4.6212  -4.1587  -4.1212  -3.5148  -2.9971  -2.9786  -2.9468  -2.8618
    -2.8221  -2.7878  -2.7274  -2.7103  -2.6753  -2.6348  -2.5404  -2.5272

          k = 0.2996-0.1730-1.2442 ( 31038 PWs)   bands (ev):

   -20.6776 -20.6567 -20.4673 -20.3971 -20.2921 -20.2615 -20.1082 -20.1054
   -19.9608 -19.9409 -19.7944 -19.7573  -8.4093  -8.3851  -8.3236  -8.3079
    -8.2211  -8.2188  -8.1505  -8.0857  -7.9825  -7.8991  -7.8665  -7.8252
    -6.2475  -6.2308  -5.8178  -5.7480  -5.4231  -5.0825  -4.6692  -4.6033
    -4.4141  -4.2644  -3.9402  -3.7636  -2.9999  -2.9687  -2.9521  -2.8930
    -2.8267  -2.7853  -2.7751  -2.7092  -2.7079  -2.6381  -2.5097  -2.4951

          k = 0.0000 0.0000 0.9332 ( 31089 PWs)   bands (ev):

   -20.5902 -20.5902 -20.5598 -20.4784 -20.3143 -20.3142 -20.0508 -20.0508
   -19.9386 -19.8547 -19.8547 -19.8291  -8.3880  -8.3880  -8.3381  -8.2862
    -8.2466  -8.2466  -8.1135  -8.0392  -8.0392  -7.8209  -7.8209  -7.7909
    -6.1371  -6.1371  -6.0611  -5.8121  -5.3730  -5.3730  -4.4694  -4.4694
    -4.3243  -4.1091  -4.1091  -3.9889  -3.0219  -3.0219  -2.9329  -2.9019
    -2.8299  -2.8299  -2.7742  -2.7190  -2.7190  -2.6026  -2.6026  -2.4737

          k = 0.4494 0.2595 0.0000 ( 31034 PWs)   bands (ev):

   -20.7096 -20.5618 -20.5551 -20.3962 -20.2650 -20.2347 -20.1458 -20.1112
   -19.9680 -19.8871 -19.8460 -19.7386  -8.4089  -8.3749  -8.3494  -8.2780
    -8.2529  -8.1953  -8.1659  -8.0591  -8.0154  -7.8802  -7.8515  -7.8427
    -6.3694  -5.9653  -5.9314  -5.8084  -5.3852  -5.0740  -4.7363  -4.6298
    -4.3254  -4.1766  -4.0776  -3.7249  -2.9875  -2.9707  -2.9592  -2.8876
    -2.8519  -2.7977  -2.7567  -2.7339  -2.6693  -2.6161  -2.5535  -2.4771

          k = 0.2996 0.1730 0.3111 ( 31040 PWs)   bands (ev):

   -20.7392 -20.5134 -20.4442 -20.4212 -20.3340 -20.2835 -20.1242 -20.0921
   -20.0045 -19.9153 -19.8505 -19.7037  -8.4129  -8.3737  -8.3421  -8.2859
    -8.2673  -8.1821  -8.0837  -7.9841  -7.9575  -7.9397  -7.8829  -7.8308
    -6.5014  -5.9332  -5.8723  -5.5705  -5.5281  -5.1048  -4.7704  -4.6303
    -4.5844  -4.1089  -4.0556  -3.6276  -3.0908  -3.0025  -2.9620  -2.9283
    -2.8703  -2.7989  -2.7399  -2.7210  -2.6533  -2.6252  -2.5541  -2.5092

          k = 0.4494-0.2595-0.9332 ( 31038 PWs)   bands (ev):

   -20.6247 -20.6154 -20.4937 -20.4514 -20.3308 -20.2564 -20.1554 -20.0677
   -19.9371 -19.9002 -19.8463 -19.7463  -8.3933  -8.3723  -8.3474  -8.2789
    -8.2502  -8.1497  -8.1326  -8.0361  -7.9732  -7.9389  -7.8724  -7.8383
    -6.2294  -6.0803  -5.9195  -5.7481  -5.4806  -5.0864  -4.8604  -4.5808
    -4.3303  -4.0947  -4.0746  -3.7343  -3.0942  -3.0169  -2.9856  -2.9341
    -2.9036  -2.8211  -2.7348  -2.7020  -2.6574  -2.6315  -2.5529  -2.4690

          k = 0.2996-0.3460-0.6221 ( 31032 PWs)   bands (ev):

   -20.6034 -20.5635 -20.4849 -20.4723 -20.3541 -20.3421 -20.0919 -20.0710
   -19.9329 -19.9117 -19.8469 -19.7571  -8.3971  -8.3446  -8.3240  -8.3137
    -8.2877  -8.1501  -8.0413  -8.0250  -7.9563  -7.9223  -7.8444  -7.8343
    -6.1815  -6.1507  -5.8695  -5.8162  -5.3882  -5.3520  -4.6743  -4.6115
    -4.2858  -4.2566  -3.9670  -3.7883  -3.1565  -3.0320  -2.9900  -2.9747
    -2.9082  -2.8343  -2.7259  -2.7052  -2.6925  -2.6042  -2.5855  -2.4706

          k = 0.0000 0.0000-1.8663 ( 31044 PWs)   bands (ev):

   -20.5702 -20.5213 -20.4813 -20.4813 -20.4122 -20.4122 -20.0250 -20.0250
   -19.9573 -19.9573 -19.8484 -19.7402  -8.3995  -8.3070  -8.3070  -8.3059
    -8.3059  -8.1193  -8.0645  -8.0473  -7.9344  -7.9344  -7.8816  -7.8816
    -6.1857  -6.0334  -5.7020  -5.7020  -5.6005  -5.6005  -4.4563  -4.4563
    -4.4180  -4.4180  -3.9095  -3.7662  -3.1528  -3.0236  -3.0236  -3.0107
    -3.0107  -2.7977  -2.7020  -2.6478  -2.6478  -2.6416  -2.6416  -2.4308

          k = 0.2996-0.3460 0.3111 ( 31053 PWs)   bands (ev):

   -20.6950 -20.5578 -20.4666 -20.4379 -20.3471 -20.2851 -20.1193 -20.0322
   -19.9895 -19.8922 -19.8581 -19.7451  -8.4083  -8.3723  -8.3320  -8.2975
    -8.2656  -8.2031  -8.0942  -8.0456  -7.9943  -7.8639  -7.8417  -7.8117
    -6.3869  -6.0426  -5.9128  -5.6153  -5.5770  -5.1486  -4.7682  -4.4656
    -4.3627  -4.2173  -4.0917  -3.7353  -3.0753  -2.9866  -2.9674  -2.8966
    -2.8562  -2.7959  -2.7624  -2.7440  -2.6934  -2.6188  -2.5483  -2.4996

     highest occupied level (ev):    -2.4308

!    total energy              =    -413.95098391 Ry
     estimated scf accuracy    <       0.00000010 Ry

     The total energy is the sum of the following terms:
     one-electron contribution =    -296.17591705 Ry
     hartree contribution      =     181.82921362 Ry
     xc contribution           =    -101.09905928 Ry
     ewald contribution        =    -198.50522120 Ry

     convergence has been achieved in  15 iterations

     Forces acting on atoms (cartesian axes, Ry/au):

     atom    1 type  2   force =    -0.00747336    0.02315076    0.01473710
     atom    2 type  2   force =     0.00747336   -0.02315076   -0.01473710
     atom    3 type  2   force =    -0.01631246   -0.01804749    0.01473710
     atom    4 type  2   force =     0.01631246    0.01804749   -0.01473710
     atom    5 type  2   force =     0.02378582   -0.00510326    0.01473710
     atom    6 type  2   force =    -0.02378582    0.00510326   -0.01473710
     atom    7 type  2   force =    -0.01813234    0.01454723   -0.01087824
     atom    8 type  2   force =     0.01813234   -0.01454723    0.01087824
     atom    9 type  2   force =    -0.00353210   -0.02297668   -0.01087824
     atom   10 type  2   force =     0.00353210    0.02297668    0.01087824
     atom   11 type  2   force =     0.02166444    0.00842945   -0.01087824
     atom   12 type  2   force =    -0.02166444   -0.00842945    0.01087824
     atom   13 type  1   force =     0.00993737   -0.01917784    0.01060555
     atom   14 type  1   force =    -0.00993737    0.01917784   -0.01060555
     atom   15 type  1   force =     0.01163982    0.01819493    0.01060555
     atom   16 type  1   force =    -0.01163982   -0.01819493   -0.01060555
     atom   17 type  1   force =    -0.02157718    0.00098291    0.01060555
     atom   18 type  1   force =     0.02157718   -0.00098291   -0.01060555
     atom   19 type  1   force =    -0.00374463   -0.00419697   -0.02378545
     atom   20 type  1   force =     0.00374463    0.00419697    0.02378545
     atom   21 type  1   force =     0.00550700   -0.00114446   -0.02378545
     atom   22 type  1   force =    -0.00550700    0.00114446    0.02378545
     atom   23 type  1   force =    -0.00176237    0.00534143   -0.02378545
     atom   24 type  1   force =     0.00176237   -0.00534143    0.02378545
     atom   25 type  1   force =    -0.00669703   -0.02260288   -0.00006922
     atom   26 type  1   force =     0.00669703    0.02260288    0.00006922
     atom   27 type  1   force =     0.02292318    0.00550164   -0.00006922
     atom   28 type  1   force =    -0.02292318   -0.00550164    0.00006922
     atom   29 type  1   force =    -0.01622615    0.01710124   -0.00006922
     atom   30 type  1   force =     0.01622615   -0.01710124    0.00006922
     atom   31 type  1   force =    -0.01665903    0.01523828    0.01249698
     atom   32 type  1   force =     0.01665903   -0.01523828   -0.01249698
     atom   33 type  1   force =    -0.00486722   -0.02204628    0.01249698
     atom   34 type  1   force =     0.00486722    0.02204628   -0.01249698
     atom   35 type  1   force =     0.02152625    0.00680800    0.01249698
     atom   36 type  1   force =    -0.02152625   -0.00680800   -0.01249698

     Total force =     0.152298     Total SCF correction =     0.000247


     Computing stress (Cartesian axis) and pressure

          total   stress  (Ry/bohr**3)                   (kbar)     P=      -42.85
  -0.00030465  -0.00000000   0.00000000          -44.82       -0.00        0.00
   0.00000000  -0.00030465  -0.00000000            0.00      -44.82       -0.00
  -0.00000000  -0.00000000  -0.00026467           -0.00       -0.00      -38.93


     Writing all to output data dir ./iceII/iceII.save/ :
     XML data file, charge density, pseudopotentials, collected wavefunctions

     init_run     :      1.23s CPU      1.29s WALL (       1 calls)
     electrons    :     13.28s CPU     13.56s WALL (       1 calls)
     forces       :      0.14s CPU      0.15s WALL (       1 calls)
     stress       :      0.91s CPU      0.92s WALL (       1 calls)

     Called by init_run:
     wfcinit      :      0.36s CPU      0.37s WALL (       1 calls)
     potinit      :      0.04s CPU      0.05s WALL (       1 calls)
     hinit0       :      0.66s CPU      0.68s WALL (       1 calls)

     Called by electrons:
     c_bands      :     10.94s CPU     11.09s WALL (      15 calls)
     sum_band     :      1.70s CPU      1.72s WALL (      15 calls)
     v_of_rho     :      0.41s CPU      0.44s WALL (      16 calls)
     newd         :      0.12s CPU      0.13s WALL (      16 calls)
     mix_rho      :      0.06s CPU      0.06s WALL (      15 calls)

     Called by c_bands:
     init_us_2    :      0.20s CPU      0.21s WALL (     132 calls)
     cegterg      :     10.52s CPU     10.64s WALL (      60 calls)

     Called by *egterg:
     cdiaghg      :      0.76s CPU      0.76s WALL (     206 calls)
     h_psi        :      8.28s CPU      8.36s WALL (     210 calls)
     s_psi        :      0.35s CPU      0.36s WALL (     210 calls)
     g_psi        :      0.02s CPU      0.02s WALL (     146 calls)

     Called by h_psi:
     h_psi:calbec :      0.58s CPU      0.59s WALL (     210 calls)
     vloc_psi     :      7.27s CPU      7.34s WALL (     210 calls)
     add_vuspsi   :      0.36s CPU      0.36s WALL (     210 calls)

     General routines
     calbec       :      0.80s CPU      0.81s WALL (     290 calls)
     fft          :      0.89s CPU      0.93s WALL (     184 calls)
     ffts         :      0.02s CPU      0.02s WALL (      15 calls)
     fftw         :      7.64s CPU      7.71s WALL (   19884 calls)

     Parallel routines

     PWSCF        :     15.89s CPU     16.58s WALL


   This run was terminated on:  18: 0:23  23Mar2026            

=------------------------------------------------------------------------------=
   JOB DONE.
=------------------------------------------------------------------------------=
