
     Program PWSCF v.7.3.1 starts on 21Mar2026 at 19:54:59 

     This program is part of the open-source Quantum ESPRESSO suite
     for quantum simulation of materials; please cite
         "P. Giannozzi et al., J. Phys.:Condens. Matter 21 395502 (2009);
         "P. Giannozzi et al., J. Phys.:Condens. Matter 29 465901 (2017);
         "P. Giannozzi et al., J. Chem. Phys. 152 154105 (2020);
          URL http://www.quantum-espresso.org", 
     in publications or presentations arising from this work. More details at
     http://www.quantum-espresso.org/quote

     Parallel version (MPI), running on   128 processors

     MPI processes distributed on     1 nodes
     242817 MiB available memory on the printing compute node when the environment starts

     Waiting for input...
     Reading input from standard input

     Current dimensions of program PWSCF are:
     Max number of different atomic species (ntypx) = 10
     Max number of k-points (npk) =  40000
     Max angular momentum in pseudopotentials (lmaxx) =  4

     K-points division:     npool     =       4
     R & G space division:  proc/nbgrp/npool/nimage =      32
     Subspace diagonalization in iterative solution of the eigenvalue problem:
     a serial algorithm will be used


     Parallelization info
     --------------------
     sticks:   dense  smooth     PW     G-vecs:    dense   smooth      PW
     Min         183     183     53                 7760     7760    1232
     Max         184     184     54                 7763     7763    1236
     Sum        5879    5879   1727               248377   248377   39511

     Using Slab Decomposition



     bravais-lattice index     =            5
     lattice parameter (alat)  =      14.9373  a.u.
     unit-cell volume          =    2153.3212 (a.u.)^3
     number of atoms/cell      =           36
     number of atomic types    =            2
     number of electrons       =        96.00
     number of Kohn-Sham states=           48
     kinetic-energy cutoff     =      90.0000  Ry
     charge density cutoff     =     360.0000  Ry
     scf convergence threshold =      1.0E-07
     mixing beta               =       0.7000
     number of iterations used =            8  plain     mixing
     Exchange-correlation=  SLA  PW   PBE  PBE
                           (   1   4   3   4   0   0   0)

     celldm(1)=  14.937301  celldm(2)=   0.000000  celldm(3)=   0.000000
     celldm(4)=  -0.392337  celldm(5)=   0.000000  celldm(6)=   0.000000

     crystal axes: (cart. coord. in units of alat)
               a(1) = (   0.834367  -0.481722   0.267909 )  
               a(2) = (   0.000000   0.963444   0.267909 )  
               a(3) = (  -0.834367  -0.481722   0.267909 )  

     reciprocal axes: (cart. coord. in units 2 pi/alat)
               b(1) = (  0.599257 -0.345981  1.244203 )  
               b(2) = (  0.000000  0.691962  1.244203 )  
               b(3) = ( -0.599257 -0.345981  1.244203 )  


     PseudoPot. # 1 for H  read from file:
     ./H.pbe-van_ak.UPF
     MD5 check sum: 077eb6d537518a38cb46c6de387227b7
     Pseudo is Ultrasoft, Zval =  1.0
     Generated by new atomic code, or converted to UPF format
     Using radial grid of  615 points,  1 beta functions with: 
                l(1) =   0
     Q(r) pseudized with  8 coefficients,  rinner =    0.800

     PseudoPot. # 2 for O  read from file:
     ./O.pbe-van_ak.UPF
     MD5 check sum: 78c19812648e8988a0fe644b0f25305e
     Pseudo is Ultrasoft, Zval =  6.0
     Generated by new atomic code, or converted to UPF format
     Using radial grid of  737 points,  4 beta functions with: 
                l(1) =   0
                l(2) =   0
                l(3) =   1
                l(4) =   1
     Q(r) pseudized with  8 coefficients,  rinner =    0.800   0.800   0.800


     atomic species   valence    mass     pseudopotential
     H                 1.00     1.00800     H ( 1.00)
     O                 6.00    16.00000     O ( 1.00)

      6 Sym. Ops., with inversion, found



   Cartesian axes

     site n.     atom                  positions (alat units)
         1        O      tau(   1) = (  -0.4847673  -0.5197781   0.3083633  )
         2        O      tau(   2) = (   0.4847673   0.5197782   0.4953638  )
         3        O      tau(   3) = (   0.6925247  -0.1599317   0.3083633  )
         4        O      tau(   4) = (  -0.6925248   0.1599317   0.4953638  )
         5        O      tau(   5) = (  -0.2077574   0.6797099   0.3083633  )
         6        O      tau(   6) = (   0.2077574  -0.6797099   0.4953638  )
         7        O      tau(   7) = (   0.1218176   0.3323883   0.4179381  )
         8        O      tau(   8) = (  -0.1218176  -0.3323883   0.3857890  )
         9        O      tau(   9) = (  -0.3487655  -0.0606970   0.4179381  )
        10        O      tau(  10) = (   0.3487655   0.0606970   0.3857890  )
        11        O      tau(  11) = (   0.2269479  -0.2716913   0.4179381  )
        12        O      tau(  12) = (  -0.2269479   0.2716912   0.3857890  )
        13        H      tau(  13) = (  -0.5381668  -0.4032014   0.2796970  )
        14        H      tau(  14) = (   0.5381668   0.4032014   0.5240301  )
        15        H      tau(  15) = (   0.6182661  -0.2644654   0.2796970  )
        16        H      tau(  16) = (  -0.6182661   0.2644654   0.5240301  )
        17        H      tau(  17) = (  -0.0800993   0.6676668   0.2796970  )
        18        H      tau(  18) = (   0.0800993  -0.6676668   0.5240301  )
        19        H      tau(  19) = (  -0.4872704  -0.4817221   0.4326731  )
        20        H      tau(  20) = (   0.4872704   0.4817221   0.3710540  )
        21        H      tau(  21) = (   0.6608188  -0.1811275   0.4326731  )
        22        H      tau(  22) = (  -0.6608188   0.1811275   0.3710540  )
        23        H      tau(  23) = (  -0.1735484   0.6628496   0.4326731  )
        24        H      tau(  24) = (   0.1735484  -0.6628496   0.3710540  )
        25        H      tau(  25) = (   0.2703349  -0.1502973   0.4058822  )
        26        H      tau(  26) = (  -0.2703350   0.1502973   0.3978449  )
        27        H      tau(  27) = (  -0.0050062   0.3092656   0.4058822  )
        28        H      tau(  28) = (   0.0050062  -0.3092656   0.3978449  )
        29        H      tau(  29) = (  -0.2653287  -0.1589683   0.4058822  )
        30        H      tau(  30) = (   0.2653287   0.1589683   0.3978449  )
        31        H      tau(  31) = (   0.3178939  -0.3347969   0.3493534  )
        32        H      tau(  32) = (  -0.3178939   0.3347969   0.4543737  )
        33        H      tau(  33) = (   0.1309957   0.4427026   0.3493534  )
        34        H      tau(  34) = (  -0.1309956  -0.4427026   0.4543737  )
        35        H      tau(  35) = (  -0.4488895  -0.1079057   0.3493534  )
        36        H      tau(  36) = (   0.4488895   0.1079057   0.4543737  )

     number of k points=    14
                       cart. coord. in units 2pi/alat
        k(    1) = (   0.0000000   0.0000000   0.0000000), wk =   0.0312500
        k(    2) = (  -0.1498141  -0.0864952   0.3110508), wk =   0.1875000
        k(    3) = (   0.2996283   0.1729905  -0.6221017), wk =   0.0937500
        k(    4) = (  -0.1498141   0.0864952   0.6221017), wk =   0.1875000
        k(    5) = (   0.2996283   0.3459809  -0.3110508), wk =   0.1875000
        k(    6) = (   0.1498141   0.2594857   0.0000000), wk =   0.1875000
        k(    7) = (   0.2996283  -0.1729905  -1.2442034), wk =   0.0937500
        k(    8) = (   0.0000000   0.0000000   0.9331525), wk =   0.0625000
        k(    9) = (   0.4494424   0.2594857   0.0000000), wk =   0.1875000
        k(   10) = (   0.2996283   0.1729905   0.3110508), wk =   0.1875000
        k(   11) = (   0.4494424  -0.2594857  -0.9331525), wk =   0.1875000
        k(   12) = (   0.2996283  -0.3459809  -0.6221017), wk =   0.1875000
        k(   13) = (   0.0000000   0.0000000  -1.8663050), wk =   0.0312500
        k(   14) = (   0.2996283  -0.3459809   0.3110508), wk =   0.1875000

     Dense  grid:   248377 G-vectors     FFT dimensions: (  96,  96,  96)

     Estimated max dynamical RAM per process >      16.33 MB

     Estimated total dynamical RAM >       1.86 GB

     Initial potential from superposition of free atoms

     starting charge      95.9998, renormalised to      96.0000
     Starting wfcs are   72 randomized atomic wfcs

     total cpu time spent up to now is        1.5 secs

     per-process dynamical memory:    20.3 Mb

     Self-consistent Calculation

     iteration #  1     ecut=    90.00 Ry     beta= 0.70
     Davidson diagonalization with overlap
     ethr =  1.00E-02,  avg # of iterations =  2.0

     negative rho (up, down):  7.661E-08 0.000E+00

     total cpu time spent up to now is        2.4 secs

     total energy              =    -412.26382545 Ry
     estimated scf accuracy    <       3.68264322 Ry

     iteration #  2     ecut=    90.00 Ry     beta= 0.70
     Davidson diagonalization with overlap
     ethr =  3.84E-03,  avg # of iterations =  3.0

     negative rho (up, down):  5.239E-08 0.000E+00

     total cpu time spent up to now is        3.5 secs

     total energy              =    -413.41990246 Ry
     estimated scf accuracy    <       2.49759558 Ry

     iteration #  3     ecut=    90.00 Ry     beta= 0.70
     Davidson diagonalization with overlap
     ethr =  2.60E-03,  avg # of iterations =  2.0

     negative rho (up, down):  1.610E-07 0.000E+00

     total cpu time spent up to now is        4.3 secs

     total energy              =    -413.73631326 Ry
     estimated scf accuracy    <       0.11020460 Ry

     iteration #  4     ecut=    90.00 Ry     beta= 0.70
     Davidson diagonalization with overlap
     ethr =  1.15E-04,  avg # of iterations =  4.0

     negative rho (up, down):  2.526E-07 0.000E+00

     total cpu time spent up to now is        5.5 secs

     total energy              =    -413.82267753 Ry
     estimated scf accuracy    <       0.12858326 Ry

     iteration #  5     ecut=    90.00 Ry     beta= 0.70
     Davidson diagonalization with overlap
     ethr =  1.15E-04,  avg # of iterations =  2.0

     negative rho (up, down):  3.573E-07 0.000E+00

     total cpu time spent up to now is        6.3 secs

     total energy              =    -413.82619079 Ry
     estimated scf accuracy    <       0.02194119 Ry

     iteration #  6     ecut=    90.00 Ry     beta= 0.70
     Davidson diagonalization with overlap
     ethr =  2.29E-05,  avg # of iterations =  2.0

     negative rho (up, down):  4.540E-07 0.000E+00

     total cpu time spent up to now is        7.1 secs

     total energy              =    -413.82596225 Ry
     estimated scf accuracy    <       0.00665129 Ry

     iteration #  7     ecut=    90.00 Ry     beta= 0.70
     Davidson diagonalization with overlap
     ethr =  6.93E-06,  avg # of iterations =  3.0

     negative rho (up, down):  4.807E-07 0.000E+00

     total cpu time spent up to now is        8.0 secs

     total energy              =    -413.82763551 Ry
     estimated scf accuracy    <       0.00010839 Ry

     iteration #  8     ecut=    90.00 Ry     beta= 0.70
     Davidson diagonalization with overlap
     ethr =  1.13E-07,  avg # of iterations =  6.0

     negative rho (up, down):  4.609E-07 0.000E+00

     total cpu time spent up to now is        9.5 secs

     total energy              =    -413.82765934 Ry
     estimated scf accuracy    <       0.00089556 Ry

     iteration #  9     ecut=    90.00 Ry     beta= 0.70
     Davidson diagonalization with overlap
     ethr =  1.13E-07,  avg # of iterations =  3.0

     negative rho (up, down):  4.383E-07 0.000E+00

     total cpu time spent up to now is       10.5 secs

     total energy              =    -413.82764167 Ry
     estimated scf accuracy    <       0.00018045 Ry

     iteration # 10     ecut=    90.00 Ry     beta= 0.70
     Davidson diagonalization with overlap
     ethr =  1.13E-07,  avg # of iterations =  2.9

     negative rho (up, down):  4.387E-07 0.000E+00

     total cpu time spent up to now is       11.5 secs

     total energy              =    -413.82767679 Ry
     estimated scf accuracy    <       0.00000441 Ry

     iteration # 11     ecut=    90.00 Ry     beta= 0.70
     Davidson diagonalization with overlap
     ethr =  4.60E-09,  avg # of iterations =  3.5

     negative rho (up, down):  4.365E-07 0.000E+00

     total cpu time spent up to now is       12.4 secs

     total energy              =    -413.82767790 Ry
     estimated scf accuracy    <       0.00000107 Ry

     iteration # 12     ecut=    90.00 Ry     beta= 0.70
     Davidson diagonalization with overlap
     ethr =  1.11E-09,  avg # of iterations =  3.0

     negative rho (up, down):  4.377E-07 0.000E+00

     total cpu time spent up to now is       13.4 secs

     End of self-consistent calculation

          k = 0.0000 0.0000 0.0000 ( 31057 PWs)   bands (ev):

   -20.8664 -20.4463 -20.4463 -20.2397 -20.2397 -20.2131 -20.2131 -20.2012
   -20.1969 -19.9198 -19.9198 -19.6310  -8.2635  -8.0729  -8.0138  -8.0138
    -7.9441  -7.9441  -7.5238  -7.3777  -7.3777  -7.1664  -7.1664  -7.0432
    -6.9786  -6.1354  -6.1354  -5.5761  -5.5761  -5.4939  -5.4939  -5.2115
    -5.0361  -4.4099  -4.4099  -3.7639  -3.0034  -3.0034  -2.9091  -2.8321
    -2.7879  -2.7879  -2.6517  -2.6517  -2.6398  -2.6207  -2.5755  -2.5755

          k =-0.1498-0.0865 0.3111 ( 31055 PWs)   bands (ev):

   -20.7982 -20.4842 -20.4354 -20.3726 -20.3496 -20.2818 -20.1494 -20.1094
   -20.0596 -19.9255 -19.8870 -19.6863  -8.2114  -8.1356  -8.0608  -8.0171
    -7.9256  -7.8656  -7.5186  -7.3461  -7.3351  -7.2003  -7.0818  -7.0460
    -6.8554  -6.2750  -6.1529  -5.8919  -5.5815  -5.4573  -5.3173  -5.1044
    -5.0494  -4.4013  -4.3415  -3.8939  -3.1111  -3.0428  -2.9313  -2.8750
    -2.8227  -2.7907  -2.7502  -2.6882  -2.6298  -2.5906  -2.5603  -2.5151

          k = 0.2996 0.1730-0.6221 ( 31054 PWs)   bands (ev):

   -20.6222 -20.6207 -20.4650 -20.4547 -20.3491 -20.3467 -20.0964 -20.0897
   -19.9305 -19.9298 -19.8277 -19.8125  -8.1897  -8.1335  -8.0513  -8.0326
    -7.9276  -7.8701  -7.4668  -7.3491  -7.3110  -7.2096  -7.0045  -7.0033
    -6.6277  -6.4921  -6.2056  -6.0470  -5.5845  -5.5046  -5.3161  -5.1632
    -4.6546  -4.5275  -4.2819  -4.0586  -3.2085  -3.0609  -2.9553  -2.9262
    -2.8588  -2.8409  -2.7550  -2.7001  -2.6790  -2.5554  -2.5457  -2.4715

          k =-0.1498 0.0865 0.6221 ( 31081 PWs)   bands (ev):

   -20.6603 -20.5349 -20.5270 -20.4176 -20.3963 -20.3354 -20.1029 -20.0280
   -19.9962 -19.8880 -19.8707 -19.7878  -8.1970  -8.1115  -8.0938  -7.9900
    -7.9459  -7.8576  -7.4722  -7.3825  -7.3343  -7.1139  -7.0503  -6.9993
    -6.6324  -6.4286  -6.3369  -5.8877  -5.7228  -5.5465  -5.2420  -5.0442
    -4.8454  -4.3672  -4.3452  -4.0698  -3.1875  -3.1011  -2.9440  -2.9005
    -2.8687  -2.8207  -2.7808  -2.6995  -2.6701  -2.5648  -2.5486  -2.4660

          k = 0.2996 0.3460-0.3111 ( 31053 PWs)   bands (ev):

   -20.7088 -20.5652 -20.4691 -20.4429 -20.3707 -20.3050 -20.1074 -20.0131
   -20.0030 -19.9237 -19.8657 -19.7641  -8.2029  -8.1796  -8.0330  -8.0115
    -7.9548  -7.8635  -7.4996  -7.4415  -7.3224  -7.0833  -7.0528  -6.9884
    -6.7526  -6.4657  -6.2365  -5.9052  -5.8698  -5.3924  -5.2112  -4.9587
    -4.7402  -4.5178  -4.3237  -4.0461  -3.1062  -3.0393  -2.9594  -2.8913
    -2.8415  -2.7933  -2.7340  -2.7270  -2.6482  -2.6080  -2.5518  -2.4549

          k = 0.1498 0.2595 0.0000 ( 31030 PWs)   bands (ev):

   -20.8170 -20.5137 -20.4630 -20.3432 -20.3169 -20.2415 -20.1687 -20.1020
   -20.0647 -19.9297 -19.8973 -19.6750  -8.2484  -8.1468  -8.0531  -8.0121
    -7.8996  -7.8937  -7.5672  -7.4357  -7.2580  -7.1703  -7.1097  -7.0067
    -6.9777  -6.2625  -6.1367  -5.8823  -5.7729  -5.3375  -5.2119  -5.0861
    -4.9123  -4.4770  -4.3862  -3.8562  -3.0041  -2.9863  -2.9432  -2.8587
    -2.8218  -2.7970  -2.6889  -2.6728  -2.6420  -2.6332  -2.5361  -2.5229

          k = 0.2996-0.1730-1.2442 ( 31038 PWs)   bands (ev):

   -20.6980 -20.6647 -20.4758 -20.3902 -20.3159 -20.2648 -20.1169 -20.0865
   -19.9799 -19.9619 -19.7962 -19.7816  -8.2283  -8.1925  -8.0660  -8.0313
    -7.8724  -7.8705  -7.5613  -7.4974  -7.2391  -7.1945  -7.0234  -6.9818
    -6.6942  -6.6504  -6.2040  -5.9866  -5.6839  -5.4563  -5.0956  -4.8449
    -4.7419  -4.6660  -4.2423  -4.0609  -3.0178  -2.9726  -2.9588  -2.8901
    -2.8231  -2.7716  -2.7493  -2.6817  -2.6716  -2.6304  -2.5039  -2.4893

          k = 0.0000 0.0000 0.9332 ( 31089 PWs)   bands (ev):

   -20.6096 -20.6096 -20.5365 -20.4973 -20.3338 -20.3338 -20.0377 -20.0377
   -19.9222 -19.8925 -19.8640 -19.8640  -8.1808  -8.1808  -8.0504  -7.9541
    -7.9541  -7.9388  -7.5077  -7.4111  -7.4111  -6.9957  -6.9957  -6.9604
    -6.5620  -6.5579  -6.5579  -5.9299  -5.6396  -5.6396  -5.0087  -4.8276
    -4.8276  -4.3866  -4.3866  -4.2186  -3.0525  -3.0525  -2.9360  -2.8822
    -2.8144  -2.8144  -2.7630  -2.7008  -2.7008  -2.5945  -2.5945  -2.4324

          k = 0.4494 0.2595 0.0000 ( 31034 PWs)   bands (ev):

   -20.7257 -20.5723 -20.5677 -20.3920 -20.2653 -20.2576 -20.1316 -20.1252
   -19.9806 -19.8955 -19.8646 -19.7542  -8.2234  -8.1817  -8.1185  -7.9710
    -7.9145  -7.8519  -7.5781  -7.4505  -7.3269  -7.0958  -7.0478  -7.0015
    -6.7918  -6.4324  -6.3580  -5.9401  -5.7018  -5.4496  -5.0177  -4.9792
    -4.7840  -4.4860  -4.3491  -4.0349  -3.0016  -2.9943  -2.9483  -2.8945
    -2.8388  -2.7842  -2.7180  -2.6967  -2.6497  -2.6087  -2.5525  -2.4719

          k = 0.2996 0.1730 0.3111 ( 31040 PWs)   bands (ev):

   -20.7522 -20.5252 -20.4446 -20.4299 -20.3492 -20.2963 -20.1204 -20.0918
   -20.0279 -19.9141 -19.8658 -19.7214  -8.2223  -8.1661  -8.0857  -7.9644
    -7.9604  -7.8183  -7.5333  -7.4124  -7.2402  -7.1701  -7.1274  -7.0352
    -6.7785  -6.2822  -6.1166  -6.0321  -5.8077  -5.4813  -5.1985  -5.0079
    -4.8493  -4.4686  -4.3304  -3.9372  -3.1238  -3.0498  -2.9796  -2.9269
    -2.8367  -2.7979  -2.7269  -2.6970  -2.6188  -2.5793  -2.5244  -2.5071

          k = 0.4494-0.2595-0.9332 ( 31038 PWs)   bands (ev):

   -20.6320 -20.6318 -20.5040 -20.4574 -20.3383 -20.2677 -20.1565 -20.0788
   -19.9481 -19.8972 -19.8510 -19.7753  -8.2499  -8.1548  -8.1156  -7.9715
    -7.9268  -7.7990  -7.5748  -7.3703  -7.2574  -7.2039  -7.0677  -7.0410
    -6.5333  -6.4946  -6.1890  -6.0418  -5.8623  -5.5654  -5.1588  -4.8884
    -4.5882  -4.5626  -4.3735  -4.0024  -3.1250  -3.0675  -3.0327  -2.9267
    -2.8935  -2.8125  -2.6802  -2.6592  -2.6315  -2.5921  -2.5262  -2.4736

          k = 0.2996-0.3460-0.6221 ( 31032 PWs)   bands (ev):

   -20.5905 -20.5890 -20.4939 -20.4865 -20.3665 -20.3656 -20.0813 -20.0760
   -19.9362 -19.9299 -19.8217 -19.8073  -8.2634  -8.0728  -8.0433  -8.0259
    -7.9919  -7.8034  -7.4979  -7.3785  -7.2386  -7.1932  -7.0489  -7.0438
    -6.4987  -6.3743  -6.2218  -6.0963  -5.7897  -5.7544  -5.0812  -5.0107
    -4.5970  -4.5538  -4.3879  -3.9869  -3.2380  -3.0809  -3.0310  -2.9638
    -2.9137  -2.7850  -2.7219  -2.6847  -2.6647  -2.5477  -2.5316  -2.4566

          k = 0.0000 0.0000-1.8663 ( 31044 PWs)   bands (ev):

   -20.5624 -20.5520 -20.4613 -20.4613 -20.4549 -20.4549 -20.0115 -20.0115
   -19.9851 -19.9851 -19.8076 -19.7965  -8.3087  -8.0393  -8.0393  -8.0166
    -8.0166  -7.7727  -7.5455  -7.3743  -7.1483  -7.1483  -7.1172  -7.1172
    -6.3359  -6.1519  -6.1106  -6.1106  -6.0919  -6.0919  -4.8727  -4.8727
    -4.6300  -4.6300  -4.4119  -3.9382  -3.2680  -3.0825  -3.0825  -2.9978
    -2.9978  -2.7342  -2.7162  -2.6268  -2.6268  -2.5600  -2.5600  -2.4330

          k = 0.2996-0.3460 0.3111 ( 31053 PWs)   bands (ev):

   -20.7087 -20.5651 -20.4718 -20.4416 -20.3681 -20.3058 -20.1080 -20.0245
   -19.9879 -19.9315 -19.8602 -19.7656  -8.2180  -8.1474  -8.0685  -8.0086
    -7.9260  -7.8714  -7.5438  -7.4123  -7.2985  -7.1191  -7.0192  -7.0081
    -6.7466  -6.4012  -6.3251  -5.9581  -5.7255  -5.4516  -5.2895  -4.8741
    -4.7213  -4.5043  -4.3883  -4.0267  -3.1133  -3.0128  -2.9754  -2.8880
    -2.8457  -2.7988  -2.7337  -2.7280  -2.6650  -2.5790  -2.5526  -2.4627

     highest occupied level (ev):    -2.4324

!    total energy              =    -413.82767825 Ry
     estimated scf accuracy    <       0.00000005 Ry

     The total energy is the sum of the following terms:
     one-electron contribution =    -296.64452027 Ry
     hartree contribution      =     182.03772580 Ry
     xc contribution           =    -100.85022220 Ry
     ewald contribution        =    -198.37066157 Ry

     convergence has been achieved in  12 iterations

     Forces acting on atoms (cartesian axes, Ry/au):

     atom    1 type  2   force =    -0.04267089    0.08620197    0.04589569
     atom    2 type  2   force =     0.04267089   -0.08620197   -0.04589569
     atom    3 type  2   force =    -0.05331765   -0.08005506    0.04589569
     atom    4 type  2   force =     0.05331765    0.08005506   -0.04589569
     atom    5 type  2   force =     0.09598854   -0.00614691    0.04589569
     atom    6 type  2   force =    -0.09598854    0.00614691   -0.04589569
     atom    7 type  2   force =    -0.04922142    0.03633831   -0.03297151
     atom    8 type  2   force =     0.04922142   -0.03633831    0.03297151
     atom    9 type  2   force =    -0.00685919   -0.06079616   -0.03297151
     atom   10 type  2   force =     0.00685919    0.06079616    0.03297151
     atom   11 type  2   force =     0.05608061    0.02445784   -0.03297151
     atom   12 type  2   force =    -0.05608061   -0.02445784    0.03297151
     atom   13 type  1   force =     0.01180856   -0.04411282   -0.04358427
     atom   14 type  1   force =    -0.01180856    0.04411282    0.04358427
     atom   15 type  1   force =     0.03229854    0.03228292   -0.04358427
     atom   16 type  1   force =    -0.03229854   -0.03228292    0.04358427
     atom   17 type  1   force =    -0.04410710    0.01182990   -0.04358427
     atom   18 type  1   force =     0.04410710   -0.01182990    0.04358427
     atom   19 type  1   force =     0.02861516   -0.04872202   -0.01231933
     atom   20 type  1   force =    -0.02861516    0.04872202    0.01231933
     atom   21 type  1   force =     0.02788693    0.04914247   -0.01231933
     atom   22 type  1   force =    -0.02788693   -0.04914247    0.01231933
     atom   23 type  1   force =    -0.05650209   -0.00042044   -0.01231933
     atom   24 type  1   force =     0.05650209    0.00042044    0.01231933
     atom   25 type  1   force =    -0.01996014   -0.02438707    0.01366925
     atom   26 type  1   force =     0.01996014    0.02438707   -0.01366925
     atom   27 type  1   force =     0.03109989   -0.00509246    0.01366925
     atom   28 type  1   force =    -0.03109989    0.00509246   -0.01366925
     atom   29 type  1   force =    -0.01113975    0.02947953    0.01366925
     atom   30 type  1   force =     0.01113975   -0.02947953   -0.01366925
     atom   31 type  1   force =    -0.04319129    0.00326899    0.02758381
     atom   32 type  1   force =     0.04319129   -0.00326899   -0.02758381
     atom   33 type  1   force =     0.01876461   -0.03903925    0.02758381
     atom   34 type  1   force =    -0.01876461    0.03903925   -0.02758381
     atom   35 type  1   force =     0.02442668    0.03577026    0.02758381
     atom   36 type  1   force =    -0.02442668   -0.03577026   -0.02758381

     Total force =     0.404980     Total SCF correction =     0.000321


     Computing stress (Cartesian axis) and pressure

          total   stress  (Ry/bohr**3)                   (kbar)     P=      -54.35
  -0.00044836  -0.00000000   0.00000000          -65.96       -0.00        0.00
   0.00000000  -0.00044836  -0.00000000            0.00      -65.96       -0.00
   0.00000000  -0.00000000  -0.00021170            0.00       -0.00      -31.14


     Writing all to output data dir ./iceII/iceII.save/ :
     XML data file, charge density, pseudopotentials, collected wavefunctions

     init_run     :      1.23s CPU      1.30s WALL (       1 calls)
     electrons    :     11.76s CPU     11.97s WALL (       1 calls)
     forces       :      0.14s CPU      0.15s WALL (       1 calls)
     stress       :      0.91s CPU      0.93s WALL (       1 calls)

     Called by init_run:
     wfcinit      :      0.35s CPU      0.37s WALL (       1 calls)
     potinit      :      0.04s CPU      0.06s WALL (       1 calls)
     hinit0       :      0.67s CPU      0.68s WALL (       1 calls)

     Called by electrons:
     c_bands      :      9.90s CPU      9.98s WALL (      12 calls)
     sum_band     :      1.36s CPU      1.38s WALL (      12 calls)
     v_of_rho     :      0.31s CPU      0.37s WALL (      13 calls)
     newd         :      0.09s CPU      0.10s WALL (      13 calls)
     mix_rho      :      0.05s CPU      0.05s WALL (      12 calls)

     Called by c_bands:
     init_us_2    :      0.16s CPU      0.17s WALL (     108 calls)
     cegterg      :      9.60s CPU      9.65s WALL (      48 calls)

     Called by *egterg:
     cdiaghg      :      0.75s CPU      0.75s WALL (     194 calls)
     h_psi        :      7.44s CPU      7.49s WALL (     198 calls)
     s_psi        :      0.32s CPU      0.32s WALL (     198 calls)
     g_psi        :      0.02s CPU      0.02s WALL (     146 calls)

     Called by h_psi:
     h_psi:calbec :      0.54s CPU      0.54s WALL (     198 calls)
     vloc_psi     :      6.53s CPU      6.58s WALL (     198 calls)
     add_vuspsi   :      0.32s CPU      0.33s WALL (     198 calls)

     General routines
     calbec       :      0.73s CPU      0.73s WALL (     266 calls)
     fft          :      0.85s CPU      0.90s WALL (     151 calls)
     ffts         :      0.02s CPU      0.03s WALL (      12 calls)
     fftw         :      6.75s CPU      6.79s WALL (   17554 calls)

     Parallel routines

     PWSCF        :     14.34s CPU     14.99s WALL


   This run was terminated on:  19:55:14  21Mar2026            

=------------------------------------------------------------------------------=
   JOB DONE.
=------------------------------------------------------------------------------=
