
     Program PWSCF v.7.3.1 starts on 21Mar2026 at 19:59:41 

     This program is part of the open-source Quantum ESPRESSO suite
     for quantum simulation of materials; please cite
         "P. Giannozzi et al., J. Phys.:Condens. Matter 21 395502 (2009);
         "P. Giannozzi et al., J. Phys.:Condens. Matter 29 465901 (2017);
         "P. Giannozzi et al., J. Chem. Phys. 152 154105 (2020);
          URL http://www.quantum-espresso.org", 
     in publications or presentations arising from this work. More details at
     http://www.quantum-espresso.org/quote

     Parallel version (MPI), running on   128 processors

     MPI processes distributed on     1 nodes
     243021 MiB available memory on the printing compute node when the environment starts

     Waiting for input...
     Reading input from standard input

     Current dimensions of program PWSCF are:
     Max number of different atomic species (ntypx) = 10
     Max number of k-points (npk) =  40000
     Max angular momentum in pseudopotentials (lmaxx) =  4

     K-points division:     npool     =       4
     R & G space division:  proc/nbgrp/npool/nimage =      32
     Subspace diagonalization in iterative solution of the eigenvalue problem:
     a serial algorithm will be used


     Parallelization info
     --------------------
     sticks:   dense  smooth     PW     G-vecs:    dense   smooth      PW
     Min         184     184     53                 7806     7806    1237
     Max         185     185     54                 7808     7808    1240
     Sum        5907    5907   1727               249811   249811   39667

     Using Slab Decomposition



     bravais-lattice index     =            5
     lattice parameter (alat)  =      14.9667  a.u.
     unit-cell volume          =    2166.0628 (a.u.)^3
     number of atoms/cell      =           36
     number of atomic types    =            2
     number of electrons       =        96.00
     number of Kohn-Sham states=           48
     kinetic-energy cutoff     =      90.0000  Ry
     charge density cutoff     =     360.0000  Ry
     scf convergence threshold =      1.0E-07
     mixing beta               =       0.7000
     number of iterations used =            8  plain     mixing
     Exchange-correlation=  SLA  PW   PBE  PBE
                           (   1   4   3   4   0   0   0)

     celldm(1)=  14.966705  celldm(2)=   0.000000  celldm(3)=   0.000000
     celldm(4)=  -0.392337  celldm(5)=   0.000000  celldm(6)=   0.000000

     crystal axes: (cart. coord. in units of alat)
               a(1) = (   0.834367  -0.481722   0.267909 )  
               a(2) = (   0.000000   0.963444   0.267909 )  
               a(3) = (  -0.834367  -0.481722   0.267909 )  

     reciprocal axes: (cart. coord. in units 2 pi/alat)
               b(1) = (  0.599257 -0.345981  1.244203 )  
               b(2) = ( -0.000000  0.691962  1.244203 )  
               b(3) = ( -0.599257 -0.345981  1.244203 )  


     PseudoPot. # 1 for H  read from file:
     ./H.pbe-van_ak.UPF
     MD5 check sum: 077eb6d537518a38cb46c6de387227b7
     Pseudo is Ultrasoft, Zval =  1.0
     Generated by new atomic code, or converted to UPF format
     Using radial grid of  615 points,  1 beta functions with: 
                l(1) =   0
     Q(r) pseudized with  8 coefficients,  rinner =    0.800

     PseudoPot. # 2 for O  read from file:
     ./O.pbe-van_ak.UPF
     MD5 check sum: 78c19812648e8988a0fe644b0f25305e
     Pseudo is Ultrasoft, Zval =  6.0
     Generated by new atomic code, or converted to UPF format
     Using radial grid of  737 points,  4 beta functions with: 
                l(1) =   0
                l(2) =   0
                l(3) =   1
                l(4) =   1
     Q(r) pseudized with  8 coefficients,  rinner =    0.800   0.800   0.800


     atomic species   valence    mass     pseudopotential
     H                 1.00     1.00800     H ( 1.00)
     O                 6.00    16.00000     O ( 1.00)

      6 Sym. Ops., with inversion, found



   Cartesian axes

     site n.     atom                  positions (alat units)
         1        O      tau(   1) = (  -0.4847673  -0.5197781   0.3083633  )
         2        O      tau(   2) = (   0.4847673   0.5197782   0.4953638  )
         3        O      tau(   3) = (   0.6925247  -0.1599317   0.3083633  )
         4        O      tau(   4) = (  -0.6925248   0.1599317   0.4953638  )
         5        O      tau(   5) = (  -0.2077574   0.6797099   0.3083633  )
         6        O      tau(   6) = (   0.2077574  -0.6797099   0.4953638  )
         7        O      tau(   7) = (   0.1218176   0.3323883   0.4179381  )
         8        O      tau(   8) = (  -0.1218176  -0.3323883   0.3857890  )
         9        O      tau(   9) = (  -0.3487655  -0.0606970   0.4179381  )
        10        O      tau(  10) = (   0.3487655   0.0606970   0.3857890  )
        11        O      tau(  11) = (   0.2269479  -0.2716913   0.4179381  )
        12        O      tau(  12) = (  -0.2269479   0.2716912   0.3857890  )
        13        H      tau(  13) = (  -0.5381668  -0.4032014   0.2796970  )
        14        H      tau(  14) = (   0.5381668   0.4032014   0.5240301  )
        15        H      tau(  15) = (   0.6182661  -0.2644654   0.2796970  )
        16        H      tau(  16) = (  -0.6182661   0.2644654   0.5240301  )
        17        H      tau(  17) = (  -0.0800993   0.6676668   0.2796970  )
        18        H      tau(  18) = (   0.0800993  -0.6676668   0.5240301  )
        19        H      tau(  19) = (  -0.4872704  -0.4817221   0.4326731  )
        20        H      tau(  20) = (   0.4872704   0.4817221   0.3710540  )
        21        H      tau(  21) = (   0.6608188  -0.1811275   0.4326731  )
        22        H      tau(  22) = (  -0.6608188   0.1811275   0.3710540  )
        23        H      tau(  23) = (  -0.1735484   0.6628496   0.4326731  )
        24        H      tau(  24) = (   0.1735484  -0.6628496   0.3710540  )
        25        H      tau(  25) = (   0.2703349  -0.1502973   0.4058822  )
        26        H      tau(  26) = (  -0.2703350   0.1502973   0.3978449  )
        27        H      tau(  27) = (  -0.0050062   0.3092656   0.4058822  )
        28        H      tau(  28) = (   0.0050062  -0.3092656   0.3978449  )
        29        H      tau(  29) = (  -0.2653287  -0.1589683   0.4058822  )
        30        H      tau(  30) = (   0.2653287   0.1589683   0.3978449  )
        31        H      tau(  31) = (   0.3178939  -0.3347969   0.3493534  )
        32        H      tau(  32) = (  -0.3178939   0.3347969   0.4543737  )
        33        H      tau(  33) = (   0.1309957   0.4427026   0.3493534  )
        34        H      tau(  34) = (  -0.1309956  -0.4427026   0.4543737  )
        35        H      tau(  35) = (  -0.4488895  -0.1079057   0.3493534  )
        36        H      tau(  36) = (   0.4488895   0.1079057   0.4543737  )

     number of k points=    14
                       cart. coord. in units 2pi/alat
        k(    1) = (   0.0000000   0.0000000   0.0000000), wk =   0.0312500
        k(    2) = (  -0.1498141  -0.0864952   0.3110508), wk =   0.1875000
        k(    3) = (   0.2996283   0.1729905  -0.6221017), wk =   0.0937500
        k(    4) = (  -0.1498141   0.0864952   0.6221017), wk =   0.1875000
        k(    5) = (   0.2996283   0.3459809  -0.3110508), wk =   0.1875000
        k(    6) = (   0.1498141   0.2594857   0.0000000), wk =   0.1875000
        k(    7) = (   0.2996283  -0.1729905  -1.2442034), wk =   0.0937500
        k(    8) = (   0.0000000   0.0000000   0.9331525), wk =   0.0625000
        k(    9) = (   0.4494424   0.2594857   0.0000000), wk =   0.1875000
        k(   10) = (   0.2996283   0.1729905   0.3110508), wk =   0.1875000
        k(   11) = (   0.4494424  -0.2594857  -0.9331525), wk =   0.1875000
        k(   12) = (   0.2996283  -0.3459809  -0.6221017), wk =   0.1875000
        k(   13) = (   0.0000000   0.0000000  -1.8663050), wk =   0.0312500
        k(   14) = (   0.2996283  -0.3459809   0.3110508), wk =   0.1875000

     Dense  grid:   249811 G-vectors     FFT dimensions: (  96,  96,  96)

     Estimated max dynamical RAM per process >      16.40 MB

     Estimated total dynamical RAM >       1.87 GB

     Initial potential from superposition of free atoms

     starting charge      95.9998, renormalised to      96.0000
     Starting wfcs are   72 randomized atomic wfcs

     total cpu time spent up to now is        1.5 secs

     per-process dynamical memory:    20.4 Mb

     Self-consistent Calculation

     iteration #  1     ecut=    90.00 Ry     beta= 0.70
     Davidson diagonalization with overlap
     ethr =  1.00E-02,  avg # of iterations =  2.0

     total cpu time spent up to now is        2.4 secs

     total energy              =    -412.25849945 Ry
     estimated scf accuracy    <       3.67724769 Ry

     iteration #  2     ecut=    90.00 Ry     beta= 0.70
     Davidson diagonalization with overlap
     ethr =  3.83E-03,  avg # of iterations =  3.0

     total cpu time spent up to now is        3.5 secs

     total energy              =    -413.41270469 Ry
     estimated scf accuracy    <       2.51561445 Ry

     iteration #  3     ecut=    90.00 Ry     beta= 0.70
     Davidson diagonalization with overlap
     ethr =  2.62E-03,  avg # of iterations =  2.0

     negative rho (up, down):  6.325E-08 0.000E+00

     total cpu time spent up to now is        4.3 secs

     total energy              =    -413.73060767 Ry
     estimated scf accuracy    <       0.11166118 Ry

     iteration #  4     ecut=    90.00 Ry     beta= 0.70
     Davidson diagonalization with overlap
     ethr =  1.16E-04,  avg # of iterations =  4.0

     negative rho (up, down):  1.414E-07 0.000E+00

     total cpu time spent up to now is        5.6 secs

     total energy              =    -413.81811763 Ry
     estimated scf accuracy    <       0.12978403 Ry

     iteration #  5     ecut=    90.00 Ry     beta= 0.70
     Davidson diagonalization with overlap
     ethr =  1.16E-04,  avg # of iterations =  2.0

     negative rho (up, down):  1.661E-07 0.000E+00

     total cpu time spent up to now is        6.3 secs

     total energy              =    -413.82163707 Ry
     estimated scf accuracy    <       0.02221107 Ry

     iteration #  6     ecut=    90.00 Ry     beta= 0.70
     Davidson diagonalization with overlap
     ethr =  2.31E-05,  avg # of iterations =  2.0

     negative rho (up, down):  1.996E-07 0.000E+00

     total cpu time spent up to now is        7.1 secs

     total energy              =    -413.82141185 Ry
     estimated scf accuracy    <       0.00671360 Ry

     iteration #  7     ecut=    90.00 Ry     beta= 0.70
     Davidson diagonalization with overlap
     ethr =  6.99E-06,  avg # of iterations =  3.0

     negative rho (up, down):  2.113E-07 0.000E+00

     total cpu time spent up to now is        8.0 secs

     total energy              =    -413.82309023 Ry
     estimated scf accuracy    <       0.00011111 Ry

     iteration #  8     ecut=    90.00 Ry     beta= 0.70
     Davidson diagonalization with overlap
     ethr =  1.16E-07,  avg # of iterations =  6.0

     negative rho (up, down):  2.026E-07 0.000E+00

     total cpu time spent up to now is        9.5 secs

     total energy              =    -413.82311795 Ry
     estimated scf accuracy    <       0.00089676 Ry

     iteration #  9     ecut=    90.00 Ry     beta= 0.70
     Davidson diagonalization with overlap
     ethr =  1.16E-07,  avg # of iterations =  3.0

     negative rho (up, down):  1.929E-07 0.000E+00

     total cpu time spent up to now is       10.5 secs

     total energy              =    -413.82309565 Ry
     estimated scf accuracy    <       0.00019122 Ry

     iteration # 10     ecut=    90.00 Ry     beta= 0.70
     Davidson diagonalization with overlap
     ethr =  1.16E-07,  avg # of iterations =  3.0

     negative rho (up, down):  1.925E-07 0.000E+00

     total cpu time spent up to now is       11.5 secs

     total energy              =    -413.82313342 Ry
     estimated scf accuracy    <       0.00000427 Ry

     iteration # 11     ecut=    90.00 Ry     beta= 0.70
     Davidson diagonalization with overlap
     ethr =  4.45E-09,  avg # of iterations =  4.0

     negative rho (up, down):  1.919E-07 0.000E+00

     total cpu time spent up to now is       12.6 secs

     total energy              =    -413.82313547 Ry
     estimated scf accuracy    <       0.00000045 Ry

     iteration # 12     ecut=    90.00 Ry     beta= 0.70
     Davidson diagonalization with overlap
     ethr =  4.68E-10,  avg # of iterations =  3.9

     negative rho (up, down):  1.924E-07 0.000E+00

     total cpu time spent up to now is       13.6 secs

     End of self-consistent calculation

          k = 0.0000 0.0000 0.0000 ( 31213 PWs)   bands (ev):

   -20.8661 -20.4510 -20.4510 -20.2466 -20.2466 -20.2200 -20.2200 -20.2087
   -20.2041 -19.9302 -19.9302 -19.6446  -8.2693  -8.0799  -8.0208  -8.0208
    -7.9528  -7.9528  -7.5326  -7.3872  -7.3872  -7.1767  -7.1767  -7.0547
    -6.9901  -6.1539  -6.1539  -5.5983  -5.5983  -5.5155  -5.5155  -5.2354
    -5.0613  -4.4374  -4.4374  -3.7936  -3.0260  -3.0260  -2.9325  -2.8559
    -2.8122  -2.8122  -2.6766  -2.6766  -2.6655  -2.6466  -2.6018  -2.6018

          k =-0.1498-0.0865 0.3111 ( 31228 PWs)   bands (ev):

   -20.7987 -20.4885 -20.4403 -20.3780 -20.3551 -20.2881 -20.1572 -20.1176
   -20.0684 -19.9359 -19.8978 -19.6994  -8.2176  -8.1423  -8.0678  -8.0245
    -7.9341  -7.8744  -7.5269  -7.3554  -7.3449  -7.2104  -7.0931  -7.0574
    -6.8685  -6.2925  -6.1715  -5.9117  -5.6028  -5.4803  -5.3403  -5.1289
    -5.0739  -4.4289  -4.3693  -3.9233  -3.1325  -3.0649  -2.9544  -2.8984
    -2.8467  -2.8151  -2.7749  -2.7131  -2.6554  -2.6163  -2.5865  -2.5416

          k = 0.2996 0.1730-0.6221 ( 31244 PWs)   bands (ev):

   -20.6249 -20.6230 -20.4692 -20.4596 -20.3545 -20.3525 -20.1046 -20.0983
   -19.9406 -19.9403 -19.8389 -19.8243  -8.1962  -8.1403  -8.0584  -8.0401
    -7.9358  -7.8789  -7.4753  -7.3585  -7.3209  -7.2197  -7.0166  -7.0154
    -6.6429  -6.5081  -6.2241  -6.0655  -5.6062  -5.5266  -5.3395  -5.1873
    -4.6817  -4.5540  -4.3100  -4.0873  -3.2287  -3.0826  -2.9782  -2.9491
    -2.8823  -2.8649  -2.7795  -2.7253  -2.7040  -2.5814  -2.5719  -2.4984

          k =-0.1498 0.0865 0.6221 ( 31264 PWs)   bands (ev):

   -20.6624 -20.5384 -20.5307 -20.4226 -20.4014 -20.3412 -20.1112 -20.0371
   -20.0058 -19.8987 -19.8816 -19.7997  -8.2035  -8.1184  -8.1009  -7.9974
    -7.9542  -7.8666  -7.4809  -7.3914  -7.3437  -7.1250  -7.0619  -7.0114
    -6.6476  -6.4451  -6.3542  -5.9076  -5.7437  -5.5684  -5.2657  -5.0689
    -4.8709  -4.3950  -4.3732  -4.0982  -3.2080  -3.1224  -2.9669  -2.9239
    -2.8923  -2.8446  -2.8052  -2.7244  -2.6953  -2.5908  -2.5747  -2.4928

          k = 0.2996 0.3460-0.3111 ( 31253 PWs)   bands (ev):

   -20.7102 -20.5683 -20.4737 -20.4472 -20.3763 -20.3111 -20.1158 -20.0224
   -20.0123 -19.9342 -19.8766 -19.7763  -8.2093  -8.1861  -8.0404  -8.0191
    -7.9628  -7.8721  -7.5076  -7.4500  -7.3317  -7.0946  -7.0643  -7.0006
    -6.7669  -6.4823  -6.2545  -5.9245  -5.8898  -5.4158  -5.2351  -4.9838
    -4.7665  -4.5448  -4.3515  -4.0749  -3.1278  -3.0614  -2.9822  -2.9146
    -2.8653  -2.8176  -2.7586  -2.7518  -2.6737  -2.6337  -2.5780  -2.4820

          k = 0.1498 0.2595 0.0000 ( 31238 PWs)   bands (ev):

   -20.8173 -20.5174 -20.4674 -20.3491 -20.3229 -20.2484 -20.1763 -20.1104
   -20.0734 -19.9400 -19.9080 -19.6881  -8.2544  -8.1533  -8.0603  -8.0198
    -7.9081  -7.9022  -7.5746  -7.4444  -7.2680  -7.1807  -7.1209  -7.0191
    -6.9894  -6.2806  -6.1556  -5.9018  -5.7928  -5.3609  -5.2363  -5.1105
    -4.9379  -4.5042  -4.4135  -3.8860  -3.0267  -3.0092  -2.9663  -2.8822
    -2.8456  -2.8211  -2.7141  -2.6979  -2.6676  -2.6588  -2.5626  -2.5496

          k = 0.2996-0.1730-1.2442 ( 31206 PWs)   bands (ev):

   -20.6995 -20.6667 -20.4799 -20.3957 -20.3218 -20.2716 -20.1249 -20.0952
   -19.9894 -19.9719 -19.8079 -19.7936  -8.2344  -8.1989  -8.0734  -8.0388
    -7.8807  -7.8793  -7.5682  -7.5052  -7.2488  -7.2048  -7.0350  -6.9938
    -6.7098  -6.6658  -6.2224  -6.0054  -5.7042  -5.4794  -5.1211  -4.8708
    -4.7686  -4.6913  -4.2704  -4.0898  -3.0400  -2.9955  -2.9820  -2.9132
    -2.8468  -2.7962  -2.7737  -2.7069  -2.6966  -2.6561  -2.5307  -2.5161

          k = 0.0000 0.0000 0.9332 ( 31242 PWs)   bands (ev):

   -20.6122 -20.6122 -20.5400 -20.5013 -20.3398 -20.3398 -20.0468 -20.0468
   -19.9322 -19.9036 -19.8749 -19.8749  -8.1873  -8.1873  -8.0579  -7.9621
    -7.9621  -7.9462  -7.5155  -7.4198  -7.4198  -7.0078  -7.0078  -6.9728
    -6.5780  -6.5736  -6.5736  -5.9491  -5.6612  -5.6612  -5.0340  -4.8533
    -4.8533  -4.4141  -4.4141  -4.2461  -3.0745  -3.0745  -2.9589  -2.9061
    -2.8383  -2.8383  -2.7876  -2.7256  -2.7256  -2.6202  -2.6202  -2.4597

          k = 0.4494 0.2595 0.0000 ( 31233 PWs)   bands (ev):

   -20.7269 -20.5752 -20.5709 -20.3974 -20.2719 -20.2645 -20.1396 -20.1333
   -19.9902 -19.9062 -19.8757 -19.7665  -8.2296  -8.1881  -8.1255  -7.9790
    -7.9228  -7.8605  -7.5850  -7.4587  -7.3359  -7.1069  -7.0594  -7.0133
    -6.8065  -6.4494  -6.3754  -5.9590  -5.7227  -5.4725  -5.0428  -5.0045
    -4.8105  -4.5130  -4.3765  -4.0639  -3.0241  -3.0168  -2.9717  -2.9175
    -2.8625  -2.8085  -2.7426  -2.7215  -2.6752  -2.6346  -2.5789  -2.4989

          k = 0.2996 0.1730 0.3111 ( 31236 PWs)   bands (ev):

   -20.7532 -20.5290 -20.4495 -20.4344 -20.3547 -20.3024 -20.1286 -20.1001
   -20.0372 -19.9245 -19.8769 -19.7340  -8.2285  -8.1727  -8.0927  -7.9725
    -7.9683  -7.8276  -7.5410  -7.4213  -7.2501  -7.1805  -7.1383  -7.0469
    -6.7926  -6.3001  -6.1355  -6.0510  -5.8273  -5.5040  -5.2227  -5.0333
    -4.8745  -4.4964  -4.3579  -3.9666  -3.1452  -3.0716  -3.0021  -2.9497
    -2.8605  -2.8220  -2.7516  -2.7221  -2.6446  -2.6053  -2.5510  -2.5336

          k = 0.4494-0.2595-0.9332 ( 31210 PWs)   bands (ev):

   -20.6344 -20.6342 -20.5078 -20.4622 -20.3440 -20.2741 -20.1643 -20.0874
   -19.9582 -19.9077 -19.8622 -19.7874  -8.2560  -8.1615  -8.1225  -7.9795
    -7.9350  -7.8084  -7.5819  -7.3791  -7.2671  -7.2140  -7.0790  -7.0528
    -6.5496  -6.5110  -6.2075  -6.0605  -5.8820  -5.5874  -5.1833  -4.9142
    -4.6146  -4.5906  -4.4012  -4.0313  -3.1467  -3.0891  -3.0546  -2.9494
    -2.9166  -2.8363  -2.7055  -2.6846  -2.6573  -2.6180  -2.5527  -2.5004

          k = 0.2996-0.3460-0.6221 ( 31194 PWs)   bands (ev):

   -20.5932 -20.5922 -20.4979 -20.4908 -20.3718 -20.3709 -20.0898 -20.0847
   -19.9464 -19.9403 -19.8329 -19.8192  -8.2695  -8.0800  -8.0506  -8.0334
    -7.9997  -7.8127  -7.5063  -7.3871  -7.2488  -7.2035  -7.0605  -7.0555
    -6.5152  -6.3912  -6.2399  -6.1145  -5.8101  -5.7748  -5.1063  -5.0360
    -4.6236  -4.5804  -4.4162  -4.0158  -3.2581  -3.1023  -3.0529  -2.9862
    -2.9367  -2.8092  -2.7467  -2.7097  -2.6901  -2.5739  -2.5580  -2.4836

          k = 0.0000 0.0000-1.8663 ( 31248 PWs)   bands (ev):

   -20.5655 -20.5561 -20.4658 -20.4658 -20.4588 -20.4588 -20.0205 -20.0205
   -19.9951 -19.9951 -19.8189 -19.8086  -8.3144  -8.0470  -8.0470  -8.0240
    -8.0240  -7.7822  -7.5535  -7.3827  -7.1592  -7.1592  -7.1281  -7.1281
    -6.3540  -6.1694  -6.1301  -6.1301  -6.1099  -6.1099  -4.8992  -4.8992
    -4.6558  -4.6558  -4.4411  -3.9673  -3.2879  -3.1037  -3.1037  -3.0198
    -3.0198  -2.7588  -2.7409  -2.6527  -2.6527  -2.5861  -2.5861  -2.4602

          k = 0.2996-0.3460 0.3111 ( 31253 PWs)   bands (ev):

   -20.7101 -20.5683 -20.4759 -20.4463 -20.3738 -20.3119 -20.1163 -20.0335
   -19.9979 -19.9415 -19.8713 -19.7778  -8.2242  -8.1541  -8.0757  -8.0164
    -7.9339  -7.8801  -7.5513  -7.4211  -7.3080  -7.1302  -7.0310  -7.0202
    -6.7611  -6.4182  -6.3423  -5.9777  -5.7457  -5.4746  -5.3132  -4.8999
    -4.7480  -4.5310  -4.4155  -4.0557  -3.1348  -3.0351  -2.9982  -2.9113
    -2.8692  -2.8231  -2.7582  -2.7529  -2.6904  -2.6049  -2.5788  -2.4897

     highest occupied level (ev):    -2.4597

!    total energy              =    -413.82313566 Ry
     estimated scf accuracy    <       0.00000005 Ry

     The total energy is the sum of the following terms:
     one-electron contribution =    -297.33839479 Ry
     hartree contribution      =     182.29572281 Ry
     xc contribution           =    -100.79952836 Ry
     ewald contribution        =    -197.98093532 Ry

     convergence has been achieved in  12 iterations

     Forces acting on atoms (cartesian axes, Ry/au):

     atom    1 type  2   force =    -0.04371172    0.08885414    0.04766245
     atom    2 type  2   force =     0.04371172   -0.08885414   -0.04766245
     atom    3 type  2   force =    -0.05509408   -0.08228253    0.04766245
     atom    4 type  2   force =     0.05509408    0.08228253   -0.04766245
     atom    5 type  2   force =     0.09880580   -0.00657161    0.04766245
     atom    6 type  2   force =    -0.09880580    0.00657161   -0.04766245
     atom    7 type  2   force =    -0.05131750    0.03780807   -0.03432267
     atom    8 type  2   force =     0.05131750   -0.03780807    0.03432267
     atom    9 type  2   force =    -0.00708400   -0.06334629   -0.03432267
     atom   10 type  2   force =     0.00708400    0.06334629    0.03432267
     atom   11 type  2   force =     0.05840150    0.02553822   -0.03432267
     atom   12 type  2   force =    -0.05840150   -0.02553822    0.03432267
     atom   13 type  1   force =     0.01282604   -0.04624857   -0.04266456
     atom   14 type  1   force =    -0.01282604    0.04624857    0.04266456
     atom   15 type  1   force =     0.03363942    0.03423196   -0.04266456
     atom   16 type  1   force =    -0.03363942   -0.03423196    0.04266456
     atom   17 type  1   force =    -0.04646546    0.01201661   -0.04266456
     atom   18 type  1   force =     0.04646546   -0.01201661    0.04266456
     atom   19 type  1   force =     0.02847706   -0.04918068   -0.01495862
     atom   20 type  1   force =    -0.02847706    0.04918068    0.01495862
     atom   21 type  1   force =     0.02835319    0.04925219   -0.01495862
     atom   22 type  1   force =    -0.02835319   -0.04925219    0.01495862
     atom   23 type  1   force =    -0.05683024   -0.00007152   -0.01495862
     atom   24 type  1   force =     0.05683024    0.00007152    0.01495862
     atom   25 type  1   force =    -0.02068977   -0.02698059    0.01378885
     atom   26 type  1   force =     0.02068977    0.02698059   -0.01378885
     atom   27 type  1   force =     0.03371076   -0.00442757    0.01378885
     atom   28 type  1   force =    -0.03371076    0.00442757   -0.01378885
     atom   29 type  1   force =    -0.01302099    0.03140816    0.01378885
     atom   30 type  1   force =     0.01302099   -0.03140816   -0.01378885
     atom   31 type  1   force =    -0.04488856    0.00475957    0.02890754
     atom   32 type  1   force =     0.04488856   -0.00475957   -0.02890754
     atom   33 type  1   force =     0.01832237   -0.04125442    0.02890754
     atom   34 type  1   force =    -0.01832237    0.04125442   -0.02890754
     atom   35 type  1   force =     0.02656619    0.03649485    0.02890754
     atom   36 type  1   force =    -0.02656619   -0.03649485   -0.02890754

     Total force =     0.417960     Total SCF correction =     0.000299


     Computing stress (Cartesian axis) and pressure

          total   stress  (Ry/bohr**3)                   (kbar)     P=      -57.95
  -0.00047290   0.00000000   0.00000000          -69.57        0.00        0.00
  -0.00000000  -0.00047290  -0.00000000           -0.00      -69.57       -0.00
   0.00000000  -0.00000000  -0.00023600            0.00       -0.00      -34.72


     Writing all to output data dir ./iceII/iceII.save/ :
     XML data file, charge density, pseudopotentials, collected wavefunctions

     init_run     :      1.23s CPU      1.29s WALL (       1 calls)
     electrons    :     11.92s CPU     12.13s WALL (       1 calls)
     forces       :      0.14s CPU      0.15s WALL (       1 calls)
     stress       :      0.93s CPU      0.94s WALL (       1 calls)

     Called by init_run:
     wfcinit      :      0.36s CPU      0.36s WALL (       1 calls)
     potinit      :      0.03s CPU      0.05s WALL (       1 calls)
     hinit0       :      0.67s CPU      0.68s WALL (       1 calls)

     Called by electrons:
     c_bands      :     10.05s CPU     10.15s WALL (      12 calls)
     sum_band     :      1.36s CPU      1.39s WALL (      12 calls)
     v_of_rho     :      0.32s CPU      0.37s WALL (      13 calls)
     newd         :      0.09s CPU      0.09s WALL (      13 calls)
     mix_rho      :      0.05s CPU      0.05s WALL (      12 calls)

     Called by c_bands:
     init_us_2    :      0.16s CPU      0.17s WALL (     108 calls)
     cegterg      :      9.73s CPU      9.80s WALL (      48 calls)

     Called by *egterg:
     cdiaghg      :      0.77s CPU      0.77s WALL (     199 calls)
     h_psi        :      7.55s CPU      7.60s WALL (     203 calls)
     s_psi        :      0.32s CPU      0.32s WALL (     203 calls)
     g_psi        :      0.02s CPU      0.02s WALL (     151 calls)

     Called by h_psi:
     h_psi:calbec :      0.55s CPU      0.55s WALL (     203 calls)
     vloc_psi     :      6.62s CPU      6.67s WALL (     203 calls)
     add_vuspsi   :      0.33s CPU      0.34s WALL (     203 calls)

     General routines
     calbec       :      0.74s CPU      0.74s WALL (     271 calls)
     fft          :      0.86s CPU      0.90s WALL (     151 calls)
     ffts         :      0.02s CPU      0.02s WALL (      12 calls)
     fftw         :      6.82s CPU      6.88s WALL (   17786 calls)

     Parallel routines

     PWSCF        :     14.49s CPU     15.18s WALL


   This run was terminated on:  19:59:56  21Mar2026            

=------------------------------------------------------------------------------=
   JOB DONE.
=------------------------------------------------------------------------------=
