
     Program PWSCF v.7.3.1 starts on 23Mar2026 at 18: 0:25 

     This program is part of the open-source Quantum ESPRESSO suite
     for quantum simulation of materials; please cite
         "P. Giannozzi et al., J. Phys.:Condens. Matter 21 395502 (2009);
         "P. Giannozzi et al., J. Phys.:Condens. Matter 29 465901 (2017);
         "P. Giannozzi et al., J. Chem. Phys. 152 154105 (2020);
          URL http://www.quantum-espresso.org", 
     in publications or presentations arising from this work. More details at
     http://www.quantum-espresso.org/quote

     Parallel version (MPI), running on   128 processors

     MPI processes distributed on     1 nodes
     242819 MiB available memory on the printing compute node when the environment starts

     Waiting for input...
     Reading input from standard input

     Current dimensions of program PWSCF are:
     Max number of different atomic species (ntypx) = 10
     Max number of k-points (npk) =  40000
     Max angular momentum in pseudopotentials (lmaxx) =  4

     K-points division:     npool     =       4
     R & G space division:  proc/nbgrp/npool/nimage =      32
     Subspace diagonalization in iterative solution of the eigenvalue problem:
     a serial algorithm will be used


     Parallelization info
     --------------------
     sticks:   dense  smooth     PW     G-vecs:    dense   smooth      PW
     Min         184     184     53                 7806     7806    1237
     Max         185     185     54                 7808     7808    1240
     Sum        5907    5907   1727               249811   249811   39667

     Using Slab Decomposition



     bravais-lattice index     =            5
     lattice parameter (alat)  =      14.9667  a.u.
     unit-cell volume          =    2166.0628 (a.u.)^3
     number of atoms/cell      =           36
     number of atomic types    =            2
     number of electrons       =        96.00
     number of Kohn-Sham states=           48
     kinetic-energy cutoff     =      90.0000  Ry
     charge density cutoff     =     360.0000  Ry
     scf convergence threshold =      1.0E-07
     mixing beta               =       0.7000
     number of iterations used =            8  plain     mixing
     Exchange-correlation=  SLA  PW   PBE  PBE
                           (   1   4   3   4   0   0   0)

     celldm(1)=  14.966705  celldm(2)=   0.000000  celldm(3)=   0.000000
     celldm(4)=  -0.392337  celldm(5)=   0.000000  celldm(6)=   0.000000

     crystal axes: (cart. coord. in units of alat)
               a(1) = (   0.834367  -0.481722   0.267909 )  
               a(2) = (   0.000000   0.963444   0.267909 )  
               a(3) = (  -0.834367  -0.481722   0.267909 )  

     reciprocal axes: (cart. coord. in units 2 pi/alat)
               b(1) = (  0.599257 -0.345981  1.244203 )  
               b(2) = ( -0.000000  0.691962  1.244203 )  
               b(3) = ( -0.599257 -0.345981  1.244203 )  


     PseudoPot. # 1 for H  read from file:
     ./H.pbe-van_ak.UPF
     MD5 check sum: 077eb6d537518a38cb46c6de387227b7
     Pseudo is Ultrasoft, Zval =  1.0
     Generated by new atomic code, or converted to UPF format
     Using radial grid of  615 points,  1 beta functions with: 
                l(1) =   0
     Q(r) pseudized with  8 coefficients,  rinner =    0.800

     PseudoPot. # 2 for O  read from file:
     ./O.pbe-van_ak.UPF
     MD5 check sum: 78c19812648e8988a0fe644b0f25305e
     Pseudo is Ultrasoft, Zval =  6.0
     Generated by new atomic code, or converted to UPF format
     Using radial grid of  737 points,  4 beta functions with: 
                l(1) =   0
                l(2) =   0
                l(3) =   1
                l(4) =   1
     Q(r) pseudized with  8 coefficients,  rinner =    0.800   0.800   0.800


     atomic species   valence    mass     pseudopotential
     H                 1.00     1.00800     H ( 1.00)
     O                 6.00    16.00000     O ( 1.00)

      6 Sym. Ops., with inversion, found



   Cartesian axes

     site n.     atom                  positions (alat units)
         1        O      tau(   1) = (  -0.4910119  -0.5205722   0.3052394  )
         2        O      tau(   2) = (   0.4910119   0.5205722   0.4984877  )
         3        O      tau(   3) = (   0.6963347  -0.1649427   0.3052394  )
         4        O      tau(   4) = (  -0.6963347   0.1649427   0.4984877  )
         5        O      tau(   5) = (  -0.2053228   0.6855149   0.3052394  )
         6        O      tau(   6) = (   0.2053228  -0.6855149   0.4984877  )
         7        O      tau(   7) = (   0.1229870   0.3303028   0.4196306  )
         8        O      tau(   8) = (  -0.1229870  -0.3303028   0.3840965  )
         9        O      tau(   9) = (  -0.3475441  -0.0586415   0.4196306  )
        10        O      tau(  10) = (   0.3475441   0.0586415   0.3840965  )
        11        O      tau(  11) = (   0.2245571  -0.2716613   0.4196306  )
        12        O      tau(  12) = (  -0.2245571   0.2716612   0.3840965  )
        13        H      tau(  13) = (  -0.5446961  -0.4126715   0.2597134  )
        14        H      tau(  14) = (   0.5446961   0.4126715   0.5440137  )
        15        H      tau(  15) = (   0.6297321  -0.2653849   0.2597134  )
        16        H      tau(  16) = (  -0.6297321   0.2653849   0.5440137  )
        17        H      tau(  17) = (  -0.0850360   0.6780564   0.2597134  )
        18        H      tau(  18) = (   0.0850360  -0.6780564   0.5440137  )
        19        H      tau(  19) = (  -0.4726389  -0.4926041   0.4288765  )
        20        H      tau(  20) = (   0.4726389   0.4926042   0.3748506  )
        21        H      tau(  21) = (   0.6629272  -0.1630152   0.4288765  )
        22        H      tau(  22) = (  -0.6629272   0.1630152   0.3748506  )
        23        H      tau(  23) = (  -0.1902883   0.6556194   0.4288765  )
        24        H      tau(  24) = (   0.1902883  -0.6556194   0.3748506  )
        25        H      tau(  25) = (   0.2676988  -0.1507235   0.4151121  )
        26        H      tau(  26) = (  -0.2676988   0.1507234   0.3886151  )
        27        H      tau(  27) = (  -0.0033191   0.3071957   0.4151121  )
        28        H      tau(  28) = (   0.0033191  -0.3071957   0.3886151  )
        29        H      tau(  29) = (  -0.2643797  -0.1564722   0.4151121  )
        30        H      tau(  30) = (   0.2643797   0.1564723   0.3886151  )
        31        H      tau(  31) = (   0.3102941  -0.3416444   0.3555952  )
        32        H      tau(  32) = (  -0.3102941   0.3416444   0.4481319  )
        33        H      tau(  33) = (   0.1407257   0.4395448   0.3555952  )
        34        H      tau(  34) = (  -0.1407257  -0.4395448   0.4481319  )
        35        H      tau(  35) = (  -0.4510198  -0.0979003   0.3555952  )
        36        H      tau(  36) = (   0.4510198   0.0979003   0.4481319  )

     number of k points=    14
                       cart. coord. in units 2pi/alat
        k(    1) = (   0.0000000   0.0000000   0.0000000), wk =   0.0312500
        k(    2) = (  -0.1498141  -0.0864952   0.3110508), wk =   0.1875000
        k(    3) = (   0.2996283   0.1729905  -0.6221017), wk =   0.0937500
        k(    4) = (  -0.1498141   0.0864952   0.6221017), wk =   0.1875000
        k(    5) = (   0.2996283   0.3459809  -0.3110508), wk =   0.1875000
        k(    6) = (   0.1498141   0.2594857   0.0000000), wk =   0.1875000
        k(    7) = (   0.2996283  -0.1729905  -1.2442034), wk =   0.0937500
        k(    8) = (   0.0000000   0.0000000   0.9331525), wk =   0.0625000
        k(    9) = (   0.4494424   0.2594857   0.0000000), wk =   0.1875000
        k(   10) = (   0.2996283   0.1729905   0.3110508), wk =   0.1875000
        k(   11) = (   0.4494424  -0.2594857  -0.9331525), wk =   0.1875000
        k(   12) = (   0.2996283  -0.3459809  -0.6221017), wk =   0.1875000
        k(   13) = (   0.0000000   0.0000000  -1.8663050), wk =   0.0312500
        k(   14) = (   0.2996283  -0.3459809   0.3110508), wk =   0.1875000

     Dense  grid:   249811 G-vectors     FFT dimensions: (  96,  96,  96)

     Estimated max dynamical RAM per process >      16.40 MB

     Estimated total dynamical RAM >       1.87 GB

     Initial potential from superposition of free atoms

     starting charge      95.9998, renormalised to      96.0000
     Starting wfcs are   72 randomized atomic wfcs

     total cpu time spent up to now is        1.5 secs

     per-process dynamical memory:    20.5 Mb

     Self-consistent Calculation

     iteration #  1     ecut=    90.00 Ry     beta= 0.70
     Davidson diagonalization with overlap
     ethr =  1.00E-02,  avg # of iterations =  2.0

     total cpu time spent up to now is        2.4 secs

     total energy              =    -412.32427749 Ry
     estimated scf accuracy    <       3.85015508 Ry

     iteration #  2     ecut=    90.00 Ry     beta= 0.70
     Davidson diagonalization with overlap
     ethr =  4.01E-03,  avg # of iterations =  3.0

     total cpu time spent up to now is        3.5 secs

     total energy              =    -413.53753026 Ry
     estimated scf accuracy    <       2.51669864 Ry

     iteration #  3     ecut=    90.00 Ry     beta= 0.70
     Davidson diagonalization with overlap
     ethr =  2.62E-03,  avg # of iterations =  2.0

     total cpu time spent up to now is        4.3 secs

     total energy              =    -413.85770847 Ry
     estimated scf accuracy    <       0.10664764 Ry

     iteration #  4     ecut=    90.00 Ry     beta= 0.70
     Davidson diagonalization with overlap
     ethr =  1.11E-04,  avg # of iterations =  4.0

     total cpu time spent up to now is        5.6 secs

     total energy              =    -413.94099824 Ry
     estimated scf accuracy    <       0.13006088 Ry

     iteration #  5     ecut=    90.00 Ry     beta= 0.70
     Davidson diagonalization with overlap
     ethr =  1.11E-04,  avg # of iterations =  2.0

     negative rho (up, down):  1.152E-07 0.000E+00

     total cpu time spent up to now is        6.3 secs

     total energy              =    -413.94502852 Ry
     estimated scf accuracy    <       0.01939987 Ry

     iteration #  6     ecut=    90.00 Ry     beta= 0.70
     Davidson diagonalization with overlap
     ethr =  2.02E-05,  avg # of iterations =  2.0

     negative rho (up, down):  3.768E-07 0.000E+00

     total cpu time spent up to now is        7.1 secs

     total energy              =    -413.94542025 Ry
     estimated scf accuracy    <       0.00402429 Ry

     iteration #  7     ecut=    90.00 Ry     beta= 0.70
     Davidson diagonalization with overlap
     ethr =  4.19E-06,  avg # of iterations =  3.0

     negative rho (up, down):  3.619E-07 0.000E+00

     total cpu time spent up to now is        8.1 secs

     total energy              =    -413.94799423 Ry
     estimated scf accuracy    <       0.00114935 Ry

     iteration #  8     ecut=    90.00 Ry     beta= 0.70
     Davidson diagonalization with overlap
     ethr =  1.20E-06,  avg # of iterations =  2.0

     negative rho (up, down):  2.229E-07 0.000E+00

     total cpu time spent up to now is        8.8 secs

     total energy              =    -413.94732137 Ry
     estimated scf accuracy    <       0.00178676 Ry

     iteration #  9     ecut=    90.00 Ry     beta= 0.70
     Davidson diagonalization with overlap
     ethr =  1.20E-06,  avg # of iterations =  2.0

     negative rho (up, down):  1.672E-07 0.000E+00

     total cpu time spent up to now is        9.7 secs

     total energy              =    -413.94737188 Ry
     estimated scf accuracy    <       0.00023498 Ry

     iteration # 10     ecut=    90.00 Ry     beta= 0.70
     Davidson diagonalization with overlap
     ethr =  2.45E-07,  avg # of iterations =  2.4

     negative rho (up, down):  1.649E-07 0.000E+00

     total cpu time spent up to now is       10.6 secs

     total energy              =    -413.94743963 Ry
     estimated scf accuracy    <       0.00000298 Ry

     iteration # 11     ecut=    90.00 Ry     beta= 0.70
     Davidson diagonalization with overlap
     ethr =  3.11E-09,  avg # of iterations =  6.0

     negative rho (up, down):  1.753E-07 0.000E+00

     total cpu time spent up to now is       12.0 secs

     total energy              =    -413.94744580 Ry
     estimated scf accuracy    <       0.00000588 Ry

     iteration # 12     ecut=    90.00 Ry     beta= 0.70
     Davidson diagonalization with overlap
     ethr =  3.11E-09,  avg # of iterations =  2.0

     negative rho (up, down):  1.834E-07 0.000E+00

     total cpu time spent up to now is       13.0 secs

     total energy              =    -413.94744623 Ry
     estimated scf accuracy    <       0.00000040 Ry

     iteration # 13     ecut=    90.00 Ry     beta= 0.70
     Davidson diagonalization with overlap
     ethr =  4.12E-10,  avg # of iterations =  5.0

     negative rho (up, down):  1.799E-07 0.000E+00

     total cpu time spent up to now is       14.3 secs

     total energy              =    -413.94744658 Ry
     estimated scf accuracy    <       0.00000160 Ry

     iteration # 14     ecut=    90.00 Ry     beta= 0.70
     Davidson diagonalization with overlap
     ethr =  4.12E-10,  avg # of iterations =  2.0

     negative rho (up, down):  1.772E-07 0.000E+00

     total cpu time spent up to now is       15.2 secs

     total energy              =    -413.94744647 Ry
     estimated scf accuracy    <       0.00000044 Ry

     iteration # 15     ecut=    90.00 Ry     beta= 0.70
     Davidson diagonalization with overlap
     ethr =  4.12E-10,  avg # of iterations =  2.0

     negative rho (up, down):  1.763E-07 0.000E+00

     total cpu time spent up to now is       16.1 secs

     End of self-consistent calculation

          k = 0.0000 0.0000 0.0000 ( 31213 PWs)   bands (ev):

   -20.8506 -20.4476 -20.4476 -20.2452 -20.2452 -20.2388 -20.1994 -20.1994
   -20.1733 -19.9178 -19.9178 -19.6339  -8.4669  -8.3536  -8.3284  -8.3284
    -8.2676  -8.2676  -7.9697  -7.9697  -7.9526  -7.9526  -7.9442  -7.8989
    -6.8373  -5.7891  -5.7891  -5.2902  -5.2902  -5.0389  -5.0389  -4.9973
    -4.7608  -4.1580  -4.1580  -3.4442  -3.0197  -3.0197  -2.9374  -2.8423
    -2.8423  -2.7844  -2.7231  -2.7059  -2.7059  -2.6453  -2.6034  -2.6034

          k =-0.1498-0.0865 0.3111 ( 31228 PWs)   bands (ev):

   -20.7864 -20.4780 -20.4409 -20.3709 -20.3398 -20.2800 -20.1612 -20.1089
   -20.0581 -19.9249 -19.8886 -19.6848  -8.4353  -8.3737  -8.3439  -8.3242
    -8.2644  -8.2231  -8.0271  -7.9931  -7.9650  -7.9126  -7.8770  -7.8603
    -6.6636  -5.9514  -5.8163  -5.5493  -5.3845  -5.1422  -4.8699  -4.8038
    -4.6049  -4.1622  -4.0942  -3.5899  -3.0921  -3.0391  -2.9557  -2.9016
    -2.8856  -2.8278  -2.7727  -2.7036  -2.6785  -2.6459  -2.6010  -2.5895

          k = 0.2996 0.1730-0.6221 ( 31244 PWs)   bands (ev):

   -20.6366 -20.6010 -20.4639 -20.4262 -20.3622 -20.3299 -20.1206 -20.0772
   -19.9756 -19.9097 -19.8403 -19.7855  -8.3916  -8.3869  -8.3441  -8.3337
    -8.2715  -8.2022  -8.0265  -8.0073  -7.9723  -7.9232  -7.8233  -7.8097
    -6.3135  -6.2201  -5.8491  -5.8083  -5.3552  -5.3204  -4.7376  -4.6949
    -4.2742  -4.2344  -4.0595  -3.8322  -3.1571  -3.0554  -2.9679  -2.9650
    -2.9085  -2.8385  -2.8099  -2.7388  -2.7097  -2.6332  -2.5724  -2.5678

          k =-0.1498 0.0865 0.6221 ( 31264 PWs)   bands (ev):

   -20.6614 -20.5260 -20.5178 -20.4141 -20.3858 -20.3262 -20.1150 -20.0429
   -20.0004 -19.8949 -19.8739 -19.7700  -8.3948  -8.3702  -8.3636  -8.3368
    -8.2604  -8.1983  -8.0240  -8.0115  -8.0027  -7.8731  -7.8421  -7.8154
    -6.3564  -6.0822  -6.0417  -5.6244  -5.4911  -5.2989  -4.7676  -4.5287
    -4.4531  -4.1463  -4.0676  -3.8470  -3.1463  -3.0754  -2.9713  -2.9356
    -2.8829  -2.8712  -2.8227  -2.7191  -2.7124  -2.6412  -2.5896  -2.5501

          k = 0.2996 0.3460-0.3111 ( 31253 PWs)   bands (ev):

   -20.6981 -20.5535 -20.4952 -20.4252 -20.3554 -20.2918 -20.1331 -20.0470
   -19.9616 -19.9493 -19.8528 -19.7592  -8.4066  -8.3962  -8.3251  -8.3175
    -8.2667  -8.2097  -8.0894  -8.0649  -8.0063  -7.8711  -7.8605  -7.8161
    -6.3978  -6.0712  -5.8953  -5.6644  -5.6277  -5.1170  -4.7246  -4.5779
    -4.4727  -4.1823  -4.0713  -3.7878  -3.0891  -3.0352  -2.9815  -2.9199
    -2.8786  -2.8163  -2.7856  -2.7647  -2.6931  -2.6804  -2.5710  -2.5245

          k = 0.1498 0.2595 0.0000 ( 31238 PWs)   bands (ev):

   -20.8020 -20.5105 -20.4621 -20.3541 -20.3036 -20.2385 -20.1787 -20.1175
   -20.0547 -19.9257 -19.8916 -19.6771  -8.4468  -8.3735  -8.3360  -8.3151
    -8.2522  -8.2453  -8.0856  -8.0409  -7.9717  -7.9166  -7.8901  -7.8639
    -6.6696  -5.8482  -5.7993  -5.5736  -5.5304  -4.9831  -4.8646  -4.7269
    -4.6455  -4.1858  -4.1483  -3.5448  -3.0201  -3.0018  -2.9700  -2.8856
    -2.8463  -2.8123  -2.7524  -2.7354  -2.7013  -2.6612  -2.5674  -2.5543

          k = 0.2996-0.1730-1.2442 ( 31206 PWs)   bands (ev):

   -20.6801 -20.6597 -20.4725 -20.4031 -20.2991 -20.2688 -20.1176 -20.1146
   -19.9717 -19.9515 -19.8070 -19.7700  -8.4161  -8.3921  -8.3308  -8.3154
    -8.2290  -8.2266  -8.1574  -8.0936  -7.9910  -7.9089  -7.8764  -7.8357
    -6.2625  -6.2460  -5.8357  -5.7662  -5.4430  -5.1047  -4.6939  -4.6282
    -4.4399  -4.2903  -3.9680  -3.7929  -3.0228  -2.9918  -2.9756  -2.9164
    -2.8505  -2.8098  -2.8000  -2.7344  -2.7337  -2.6641  -2.5369  -2.5222

          k = 0.0000 0.0000 0.9332 ( 31242 PWs)   bands (ev):

   -20.5938 -20.5938 -20.5644 -20.4828 -20.3213 -20.3213 -20.0605 -20.0605
   -19.9501 -19.8664 -19.8664 -19.8407  -8.3948  -8.3948  -8.3454  -8.2932
    -8.2545  -8.2545  -8.1211  -8.0473  -8.0473  -7.8315  -7.8315  -7.8019
    -6.1526  -6.1526  -6.0767  -5.8311  -5.3934  -5.3934  -4.4948  -4.4948
    -4.3491  -4.1366  -4.1366  -4.0167  -3.0445  -3.0445  -2.9565  -2.9256
    -2.8541  -2.8541  -2.7994  -2.7441  -2.7441  -2.6287  -2.6287  -2.5011

          k = 0.4494 0.2595 0.0000 ( 31233 PWs)   bands (ev):

   -20.7118 -20.5660 -20.5591 -20.4021 -20.2727 -20.2424 -20.1545 -20.1202
   -19.9789 -19.8985 -19.8578 -19.7516  -8.4158  -8.3819  -8.3566  -8.2857
    -8.2605  -8.2036  -8.1727  -8.0671  -8.0236  -7.8901  -7.8616  -7.8530
    -6.3837  -5.9820  -5.9486  -5.8265  -5.4052  -5.0960  -4.7608  -4.6547
    -4.3512  -4.2035  -4.1049  -3.7542  -3.0106  -2.9938  -2.9825  -2.9111
    -2.8759  -2.8222  -2.7815  -2.7590  -2.6953  -2.6423  -2.5802  -2.5045

          k = 0.2996 0.1730 0.3111 ( 31236 PWs)   bands (ev):

   -20.7412 -20.5183 -20.4499 -20.4268 -20.3402 -20.2906 -20.1331 -20.1017
   -20.0144 -19.9266 -19.8622 -19.7172  -8.4197  -8.3805  -8.3491  -8.2933
    -8.2754  -8.1905  -8.0915  -7.9931  -7.9665  -7.9489  -7.8925  -7.8414
    -6.5147  -5.9504  -5.8896  -5.5895  -5.5477  -5.1273  -4.7940  -4.6550
    -4.6092  -4.1358  -4.0833  -3.6572  -3.1129  -3.0251  -2.9850  -2.9514
    -2.8941  -2.8235  -2.7650  -2.7463  -2.6792  -2.6513  -2.5809  -2.5361

          k = 0.4494-0.2595-0.9332 ( 31210 PWs)   bands (ev):

   -20.6282 -20.6186 -20.4986 -20.4567 -20.3373 -20.2637 -20.1640 -20.0774
   -19.9478 -19.9119 -19.8583 -19.7591  -8.4002  -8.3794  -8.3545  -8.2867
    -8.2582  -8.1579  -8.1402  -8.0442  -7.9819  -7.9481  -7.8822  -7.8486
    -6.2446  -6.0965  -5.9368  -5.7664  -5.5003  -5.1085  -4.8840  -4.6058
    -4.3567  -4.1215  -4.1021  -3.7637  -3.1165  -3.0393  -3.0084  -2.9572
    -2.9270  -2.8452  -2.7599  -2.7274  -2.6832  -2.6577  -2.5796  -2.4964

          k = 0.2996-0.3460-0.6221 ( 31194 PWs)   bands (ev):

   -20.6074 -20.5673 -20.4901 -20.4773 -20.3604 -20.3482 -20.1013 -20.0805
   -19.9439 -19.9228 -19.8592 -19.7697  -8.4039  -8.3517  -8.3312  -8.3213
    -8.2955  -8.1588  -8.0492  -8.0335  -7.9654  -7.9317  -7.8548  -7.8447
    -6.1971  -6.1664  -5.8869  -5.8339  -5.4085  -5.3728  -4.6986  -4.6365
    -4.3120  -4.2828  -3.9945  -3.8171  -3.1782  -3.0542  -3.0126  -2.9973
    -2.9320  -2.8584  -2.7510  -2.7306  -2.7180  -2.6303  -2.6118  -2.4980

          k = 0.0000 0.0000-1.8663 ( 31248 PWs)   bands (ev):

   -20.5750 -20.5255 -20.4865 -20.4865 -20.4173 -20.4173 -20.0354 -20.0354
   -19.9675 -19.9675 -19.8608 -19.7530  -8.4064  -8.3149  -8.3149  -8.3133
    -8.3133  -8.1280  -8.0720  -8.0558  -7.9438  -7.9438  -7.8913  -7.8913
    -6.2015  -6.0499  -5.7205  -5.7205  -5.6197  -5.6197  -4.4817  -4.4817
    -4.4442  -4.4442  -3.9370  -3.7949  -3.1753  -3.0458  -3.0458  -3.0330
    -3.0330  -2.8222  -2.7273  -2.6734  -2.6734  -2.6677  -2.6677  -2.4585

          k = 0.2996-0.3460 0.3111 ( 31253 PWs)   bands (ev):

   -20.6974 -20.5621 -20.4718 -20.4433 -20.3535 -20.2922 -20.1282 -20.0425
   -19.9998 -19.9036 -19.8698 -19.7580  -8.4151  -8.3791  -8.3391  -8.3053
    -8.2731  -8.2113  -8.1018  -8.0539  -8.0029  -7.8741  -7.8520  -7.8225
    -6.4008  -6.0591  -5.9296  -5.6345  -5.5965  -5.1704  -4.7918  -4.4913
    -4.3885  -4.2439  -4.1185  -3.7647  -3.0976  -3.0094  -2.9906  -2.9202
    -2.8799  -2.8205  -2.7875  -2.7689  -2.7189  -2.6449  -2.5750  -2.5268

     highest occupied level (ev):    -2.4585

!    total energy              =    -413.94744654 Ry
     estimated scf accuracy    <       0.00000002 Ry

     The total energy is the sum of the following terms:
     one-electron contribution =    -296.87548421 Ry
     hartree contribution      =     182.09157073 Ry
     xc contribution           =    -101.04830248 Ry
     ewald contribution        =    -198.11523059 Ry

     convergence has been achieved in  15 iterations

     Forces acting on atoms (cartesian axes, Ry/au):

     atom    1 type  2   force =    -0.00815047    0.02585321    0.01634515
     atom    2 type  2   force =     0.00815047   -0.02585321   -0.01634515
     atom    3 type  2   force =    -0.01831431   -0.01998512    0.01634515
     atom    4 type  2   force =     0.01831431    0.01998512   -0.01634515
     atom    5 type  2   force =     0.02646477   -0.00586810    0.01634515
     atom    6 type  2   force =    -0.02646477    0.00586810   -0.01634515
     atom    7 type  2   force =    -0.02026794    0.01632983   -0.01217902
     atom    8 type  2   force =     0.02026794   -0.01632983    0.01217902
     atom    9 type  2   force =    -0.00400808   -0.02571746   -0.01217902
     atom   10 type  2   force =     0.00400808    0.02571746    0.01217902
     atom   11 type  2   force =     0.02427602    0.00938763   -0.01217902
     atom   12 type  2   force =    -0.02427602   -0.00938763    0.01217902
     atom   13 type  1   force =     0.01106686   -0.02139409    0.01174471
     atom   14 type  1   force =    -0.01106686    0.02139409   -0.01174471
     atom   15 type  1   force =     0.01299439    0.02028122    0.01174471
     atom   16 type  1   force =    -0.01299439   -0.02028122   -0.01174471
     atom   17 type  1   force =    -0.02406125    0.00111286    0.01174471
     atom   18 type  1   force =     0.02406125   -0.00111286   -0.01174471
     atom   19 type  1   force =    -0.00425867   -0.00465703   -0.02654862
     atom   20 type  1   force =     0.00425867    0.00465703    0.02654862
     atom   21 type  1   force =     0.00616244   -0.00135961   -0.02654862
     atom   22 type  1   force =    -0.00616244    0.00135961    0.02654862
     atom   23 type  1   force =    -0.00190377    0.00601664   -0.02654862
     atom   24 type  1   force =     0.00190377   -0.00601664    0.02654862
     atom   25 type  1   force =    -0.00751166   -0.02527643   -0.00007163
     atom   26 type  1   force =     0.00751166    0.02527643    0.00007163
     atom   27 type  1   force =     0.02564586    0.00613293   -0.00007163
     atom   28 type  1   force =    -0.02564586   -0.00613293    0.00007163
     atom   29 type  1   force =    -0.01813421    0.01914350   -0.00007163
     atom   30 type  1   force =     0.01813421   -0.01914350    0.00007163
     atom   31 type  1   force =    -0.01852373    0.01697637    0.01391648
     atom   32 type  1   force =     0.01852373   -0.01697637   -0.01391648
     atom   33 type  1   force =    -0.00544010   -0.02453021    0.01391648
     atom   34 type  1   force =     0.00544010    0.02453021   -0.01391648
     atom   35 type  1   force =     0.02396383    0.00755384    0.01391648
     atom   36 type  1   force =    -0.02396383   -0.00755384   -0.01391648

     Total force =     0.169897     Total SCF correction =     0.000097


     Computing stress (Cartesian axis) and pressure

          total   stress  (Ry/bohr**3)                   (kbar)     P=      -46.55
  -0.00033016  -0.00000000  -0.00000000          -48.57       -0.00       -0.00
   0.00000000  -0.00033016  -0.00000000            0.00      -48.57       -0.00
  -0.00000000  -0.00000000  -0.00028905           -0.00       -0.00      -42.52


     Writing all to output data dir ./iceII/iceII.save/ :
     XML data file, charge density, pseudopotentials, collected wavefunctions

     init_run     :      1.22s CPU      1.29s WALL (       1 calls)
     electrons    :     14.26s CPU     14.65s WALL (       1 calls)
     forces       :      0.15s CPU      0.16s WALL (       1 calls)
     stress       :      0.90s CPU      0.93s WALL (       1 calls)

     Called by init_run:
     wfcinit      :      0.34s CPU      0.36s WALL (       1 calls)
     potinit      :      0.03s CPU      0.05s WALL (       1 calls)
     hinit0       :      0.66s CPU      0.68s WALL (       1 calls)

     Called by electrons:
     c_bands      :     11.94s CPU     12.20s WALL (      15 calls)
     sum_band     :      1.69s CPU      1.73s WALL (      15 calls)
     v_of_rho     :      0.40s CPU      0.45s WALL (      16 calls)
     newd         :      0.12s CPU      0.12s WALL (      16 calls)
     mix_rho      :      0.06s CPU      0.07s WALL (      15 calls)

     Called by c_bands:
     init_us_2    :      0.20s CPU      0.21s WALL (     132 calls)
     cegterg      :     11.52s CPU     11.73s WALL (      60 calls)

     Called by *egterg:
     cdiaghg      :      0.88s CPU      0.88s WALL (     227 calls)
     h_psi        :      8.94s CPU      9.08s WALL (     231 calls)
     s_psi        :      0.36s CPU      0.38s WALL (     231 calls)
     g_psi        :      0.02s CPU      0.02s WALL (     167 calls)

     Called by h_psi:
     h_psi:calbec :      0.63s CPU      0.64s WALL (     231 calls)
     vloc_psi     :      7.85s CPU      7.97s WALL (     231 calls)
     add_vuspsi   :      0.39s CPU      0.40s WALL (     231 calls)

     General routines
     calbec       :      0.86s CPU      0.87s WALL (     311 calls)
     fft          :      0.89s CPU      0.93s WALL (     184 calls)
     ffts         :      0.02s CPU      0.02s WALL (      15 calls)
     fftw         :      8.17s CPU      8.28s WALL (   21418 calls)

     Parallel routines

     PWSCF        :     16.80s CPU     17.70s WALL


   This run was terminated on:  18: 0:43  23Mar2026            

=------------------------------------------------------------------------------=
   JOB DONE.
=------------------------------------------------------------------------------=
