
     Program PWSCF v.7.3.1 starts on 31Mar2026 at 19:25:52 

     This program is part of the open-source Quantum ESPRESSO suite
     for quantum simulation of materials; please cite
         "P. Giannozzi et al., J. Phys.:Condens. Matter 21 395502 (2009);
         "P. Giannozzi et al., J. Phys.:Condens. Matter 29 465901 (2017);
         "P. Giannozzi et al., J. Chem. Phys. 152 154105 (2020);
          URL http://www.quantum-espresso.org", 
     in publications or presentations arising from this work. More details at
     http://www.quantum-espresso.org/quote

     Parallel version (MPI), running on   128 processors

     MPI processes distributed on     1 nodes
     498564 MiB available memory on the printing compute node when the environment starts

     Waiting for input...
     Reading input from standard input

     Current dimensions of program PWSCF are:
     Max number of different atomic species (ntypx) = 10
     Max number of k-points (npk) =  40000
     Max angular momentum in pseudopotentials (lmaxx) =  4

     K-points division:     npool     =       4
     R & G space division:  proc/nbgrp/npool/nimage =      32
     Subspace diagonalization in iterative solution of the eigenvalue problem:
     a serial algorithm will be used


     Parallelization info
     --------------------
     sticks:   dense  smooth     PW     G-vecs:    dense   smooth      PW
     Min         185     185     54                 7873     7873    1248
     Max         186     186     55                 7877     7877    1250
     Sum        5935    5935   1739               251989   251989   39967

     Using Slab Decomposition



     bravais-lattice index     =            5
     lattice parameter (alat)  =      15.0108  a.u.
     unit-cell volume          =    2185.2691 (a.u.)^3
     number of atoms/cell      =           36
     number of atomic types    =            2
     number of electrons       =        96.00
     number of Kohn-Sham states=           48
     kinetic-energy cutoff     =      90.0000  Ry
     charge density cutoff     =     360.0000  Ry
     scf convergence threshold =      1.0E-07
     mixing beta               =       0.7000
     number of iterations used =            8  plain     mixing
     energy convergence thresh.=      1.0E-04
     force convergence thresh. =      1.0E-04
     Exchange-correlation=  SLA  PW   PBE  PBE
                           (   1   4   3   4   0   0   0)
     nstep                     =           50


     celldm(1)=  15.010812  celldm(2)=   0.000000  celldm(3)=   0.000000
     celldm(4)=  -0.392337  celldm(5)=   0.000000  celldm(6)=   0.000000

     crystal axes: (cart. coord. in units of alat)
               a(1) = (   0.834367  -0.481722   0.267909 )  
               a(2) = (   0.000000   0.963444   0.267909 )  
               a(3) = (  -0.834367  -0.481722   0.267909 )  

     reciprocal axes: (cart. coord. in units 2 pi/alat)
               b(1) = (  0.599257 -0.345981  1.244203 )  
               b(2) = (  0.000000  0.691962  1.244203 )  
               b(3) = ( -0.599257 -0.345981  1.244203 )  


     PseudoPot. # 1 for H  read from file:
     ./H.pbe-van_ak.UPF
     MD5 check sum: 077eb6d537518a38cb46c6de387227b7
     Pseudo is Ultrasoft, Zval =  1.0
     Generated by new atomic code, or converted to UPF format
     Using radial grid of  615 points,  1 beta functions with: 
                l(1) =   0
     Q(r) pseudized with  8 coefficients,  rinner =    0.800

     PseudoPot. # 2 for O  read from file:
     ./O.pbe-van_ak.UPF
     MD5 check sum: 78c19812648e8988a0fe644b0f25305e
     Pseudo is Ultrasoft, Zval =  6.0
     Generated by new atomic code, or converted to UPF format
     Using radial grid of  737 points,  4 beta functions with: 
                l(1) =   0
                l(2) =   0
                l(3) =   1
                l(4) =   1
     Q(r) pseudized with  8 coefficients,  rinner =    0.800   0.800   0.800


     atomic species   valence    mass     pseudopotential
     H                 1.00     1.00800     H ( 1.00)
     O                 6.00    16.00000     O ( 1.00)

      6 Sym. Ops., with inversion, found



   Cartesian axes

     site n.     atom                  positions (alat units)
         1        O      tau(   1) = (  -0.4847673  -0.5197781   0.3083633  )
         2        O      tau(   2) = (   0.4847673   0.5197782   0.4953638  )
         3        O      tau(   3) = (   0.6925247  -0.1599317   0.3083633  )
         4        O      tau(   4) = (  -0.6925248   0.1599317   0.4953638  )
         5        O      tau(   5) = (  -0.2077574   0.6797099   0.3083633  )
         6        O      tau(   6) = (   0.2077574  -0.6797099   0.4953638  )
         7        O      tau(   7) = (   0.1218176   0.3323883   0.4179381  )
         8        O      tau(   8) = (  -0.1218176  -0.3323883   0.3857890  )
         9        O      tau(   9) = (  -0.3487655  -0.0606970   0.4179381  )
        10        O      tau(  10) = (   0.3487655   0.0606970   0.3857890  )
        11        O      tau(  11) = (   0.2269479  -0.2716913   0.4179381  )
        12        O      tau(  12) = (  -0.2269479   0.2716912   0.3857890  )
        13        H      tau(  13) = (  -0.5381668  -0.4032014   0.2796970  )
        14        H      tau(  14) = (   0.5381668   0.4032014   0.5240301  )
        15        H      tau(  15) = (   0.6182661  -0.2644654   0.2796970  )
        16        H      tau(  16) = (  -0.6182661   0.2644654   0.5240301  )
        17        H      tau(  17) = (  -0.0800993   0.6676668   0.2796970  )
        18        H      tau(  18) = (   0.0800993  -0.6676668   0.5240301  )
        19        H      tau(  19) = (  -0.4872704  -0.4817221   0.4326731  )
        20        H      tau(  20) = (   0.4872704   0.4817221   0.3710540  )
        21        H      tau(  21) = (   0.6608188  -0.1811275   0.4326731  )
        22        H      tau(  22) = (  -0.6608188   0.1811275   0.3710540  )
        23        H      tau(  23) = (  -0.1735484   0.6628496   0.4326731  )
        24        H      tau(  24) = (   0.1735484  -0.6628496   0.3710540  )
        25        H      tau(  25) = (   0.2703349  -0.1502973   0.4058822  )
        26        H      tau(  26) = (  -0.2703350   0.1502973   0.3978449  )
        27        H      tau(  27) = (  -0.0050062   0.3092656   0.4058822  )
        28        H      tau(  28) = (   0.0050062  -0.3092656   0.3978449  )
        29        H      tau(  29) = (  -0.2653287  -0.1589683   0.4058822  )
        30        H      tau(  30) = (   0.2653287   0.1589683   0.3978449  )
        31        H      tau(  31) = (   0.3178939  -0.3347969   0.3493534  )
        32        H      tau(  32) = (  -0.3178939   0.3347969   0.4543737  )
        33        H      tau(  33) = (   0.1309957   0.4427026   0.3493534  )
        34        H      tau(  34) = (  -0.1309956  -0.4427026   0.4543737  )
        35        H      tau(  35) = (  -0.4488895  -0.1079057   0.3493534  )
        36        H      tau(  36) = (   0.4488895   0.1079057   0.4543737  )

     number of k points=    14
                       cart. coord. in units 2pi/alat
        k(    1) = (   0.0000000   0.0000000   0.0000000), wk =   0.0312500
        k(    2) = (  -0.1498141  -0.0864952   0.3110508), wk =   0.1875000
        k(    3) = (   0.2996283   0.1729905  -0.6221017), wk =   0.0937500
        k(    4) = (  -0.1498141   0.0864952   0.6221017), wk =   0.1875000
        k(    5) = (   0.2996283   0.3459809  -0.3110508), wk =   0.1875000
        k(    6) = (   0.1498141   0.2594857   0.0000000), wk =   0.1875000
        k(    7) = (   0.2996283  -0.1729905  -1.2442034), wk =   0.0937500
        k(    8) = (   0.0000000   0.0000000   0.9331525), wk =   0.0625000
        k(    9) = (   0.4494424   0.2594857   0.0000000), wk =   0.1875000
        k(   10) = (   0.2996283   0.1729905   0.3110508), wk =   0.1875000
        k(   11) = (   0.4494424  -0.2594857  -0.9331525), wk =   0.1875000
        k(   12) = (   0.2996283  -0.3459809  -0.6221017), wk =   0.1875000
        k(   13) = (   0.0000000   0.0000000  -1.8663050), wk =   0.0312500
        k(   14) = (   0.2996283  -0.3459809   0.3110508), wk =   0.1875000

     Dense  grid:   251989 G-vectors     FFT dimensions: (  96,  96,  96)

     Estimated max dynamical RAM per process >      16.52 MB

     Estimated total dynamical RAM >       1.89 GB

     Initial potential from superposition of free atoms

     starting charge      95.9998, renormalised to      96.0000
     Starting wfcs are   72 randomized atomic wfcs

     total cpu time spent up to now is        1.5 secs

     per-process dynamical memory:    20.6 Mb

     Self-consistent Calculation

     iteration #  1     ecut=    90.00 Ry     beta= 0.70
     Davidson diagonalization with overlap
     ethr =  1.00E-02,  avg # of iterations =  2.0

     total cpu time spent up to now is        2.4 secs

     total energy              =    -412.25146554 Ry
     estimated scf accuracy    <       3.66700286 Ry

     iteration #  2     ecut=    90.00 Ry     beta= 0.70
     Davidson diagonalization with overlap
     ethr =  3.82E-03,  avg # of iterations =  3.0

     total cpu time spent up to now is        3.5 secs

     total energy              =    -413.40178580 Ry
     estimated scf accuracy    <       2.53888031 Ry

     iteration #  3     ecut=    90.00 Ry     beta= 0.70
     Davidson diagonalization with overlap
     ethr =  2.64E-03,  avg # of iterations =  2.0

     negative rho (up, down):  2.564E-08 0.000E+00

     total cpu time spent up to now is        4.4 secs

     total energy              =    -413.72149904 Ry
     estimated scf accuracy    <       0.11364830 Ry

     iteration #  4     ecut=    90.00 Ry     beta= 0.70
     Davidson diagonalization with overlap
     ethr =  1.18E-04,  avg # of iterations =  4.0

     negative rho (up, down):  2.617E-07 0.000E+00

     total cpu time spent up to now is        5.6 secs

     total energy              =    -413.81061309 Ry
     estimated scf accuracy    <       0.13139684 Ry

     iteration #  5     ecut=    90.00 Ry     beta= 0.70
     Davidson diagonalization with overlap
     ethr =  1.18E-04,  avg # of iterations =  2.0

     negative rho (up, down):  3.483E-07 0.000E+00

     total cpu time spent up to now is        6.3 secs

     total energy              =    -413.81409408 Ry
     estimated scf accuracy    <       0.02262179 Ry

     iteration #  6     ecut=    90.00 Ry     beta= 0.70
     Davidson diagonalization with overlap
     ethr =  2.36E-05,  avg # of iterations =  2.0

     negative rho (up, down):  4.395E-07 0.000E+00

     total cpu time spent up to now is        7.2 secs

     total energy              =    -413.81394216 Ry
     estimated scf accuracy    <       0.00675410 Ry

     iteration #  7     ecut=    90.00 Ry     beta= 0.70
     Davidson diagonalization with overlap
     ethr =  7.04E-06,  avg # of iterations =  3.0

     negative rho (up, down):  4.578E-07 0.000E+00

     total cpu time spent up to now is        8.1 secs

     total energy              =    -413.81558981 Ry
     estimated scf accuracy    <       0.00012055 Ry

     iteration #  8     ecut=    90.00 Ry     beta= 0.70
     Davidson diagonalization with overlap
     ethr =  1.26E-07,  avg # of iterations =  6.0

     negative rho (up, down):  4.430E-07 0.000E+00

     total cpu time spent up to now is        9.6 secs

     total energy              =    -413.81564391 Ry
     estimated scf accuracy    <       0.00082469 Ry

     iteration #  9     ecut=    90.00 Ry     beta= 0.70
     Davidson diagonalization with overlap
     ethr =  1.26E-07,  avg # of iterations =  3.0

     negative rho (up, down):  4.190E-07 0.000E+00

     total cpu time spent up to now is       10.6 secs

     total energy              =    -413.81560714 Ry
     estimated scf accuracy    <       0.00020160 Ry

     iteration # 10     ecut=    90.00 Ry     beta= 0.70
     Davidson diagonalization with overlap
     ethr =  1.26E-07,  avg # of iterations =  3.0

     negative rho (up, down):  4.171E-07 0.000E+00

     total cpu time spent up to now is       11.6 secs

     total energy              =    -413.81564453 Ry
     estimated scf accuracy    <       0.00000593 Ry

     iteration # 11     ecut=    90.00 Ry     beta= 0.70
     Davidson diagonalization with overlap
     ethr =  6.17E-09,  avg # of iterations =  4.0

     negative rho (up, down):  4.154E-07 0.000E+00

     total cpu time spent up to now is       12.6 secs

     total energy              =    -413.81564734 Ry
     estimated scf accuracy    <       0.00000040 Ry

     iteration # 12     ecut=    90.00 Ry     beta= 0.70
     Davidson diagonalization with overlap
     ethr =  4.21E-10,  avg # of iterations =  4.3

     negative rho (up, down):  4.164E-07 0.000E+00

     total cpu time spent up to now is       13.7 secs

     End of self-consistent calculation

          k = 0.0000 0.0000 0.0000 ( 31483 PWs)   bands (ev):

   -20.8657 -20.4581 -20.4581 -20.2568 -20.2568 -20.2304 -20.2304 -20.2198
   -20.2149 -19.9458 -19.9458 -19.6649  -8.2779  -8.0903  -8.0311  -8.0311
    -7.9656  -7.9656  -7.5456  -7.4012  -7.4012  -7.1919  -7.1919  -7.0718
    -7.0072  -6.1814  -6.1814  -5.6313  -5.6313  -5.5476  -5.5476  -5.2708
    -5.0988  -4.4783  -4.4783  -3.8379  -3.0599  -3.0599  -2.9673  -2.8912
    -2.8483  -2.8483  -2.7136  -2.7136  -2.7041  -2.6852  -2.6410  -2.6410

          k =-0.1498-0.0865 0.3111 ( 31495 PWs)   bands (ev):

   -20.7995 -20.4950 -20.4476 -20.3860 -20.3633 -20.2975 -20.1689 -20.1299
   -20.0815 -19.9513 -19.9139 -19.7187  -8.2268  -8.1522  -8.0782  -8.0356
    -7.9468  -7.8875  -7.5393  -7.3693  -7.3595  -7.2253  -7.1099  -7.0742
    -6.8879  -6.3185  -6.1991  -5.9411  -5.6343  -5.5145  -5.3745  -5.1653
    -5.1105  -4.4700  -4.4106  -3.9670  -3.1645  -3.0978  -2.9887  -2.9333
    -2.8823  -2.8515  -2.8116  -2.7501  -2.6936  -2.6544  -2.6256  -2.5812

          k = 0.2996 0.1730-0.6221 ( 31518 PWs)   bands (ev):

   -20.6290 -20.6265 -20.4756 -20.4670 -20.3626 -20.3610 -20.1169 -20.1112
   -19.9558 -19.9555 -19.8556 -19.8419  -8.2059  -8.1504  -8.0690  -8.0511
    -7.9481  -7.8920  -7.4880  -7.3724  -7.3354  -7.2345  -7.0346  -7.0332
    -6.6655  -6.5317  -6.2515  -6.0931  -5.6383  -5.5593  -5.3742  -5.2230
    -4.7220  -4.5933  -4.3518  -4.1301  -3.2591  -3.1151  -3.0123  -2.9832
    -2.9174  -2.9006  -2.8160  -2.7628  -2.7410  -2.6201  -2.6109  -2.5383

          k =-0.1498 0.0865 0.6221 ( 31523 PWs)   bands (ev):

   -20.6656 -20.5437 -20.5363 -20.4300 -20.4091 -20.3497 -20.1236 -20.0507
   -20.0200 -19.9147 -19.8978 -19.8175  -8.2131  -8.1286  -8.1113  -8.0085
    -7.9666  -7.8800  -7.4936  -7.4046  -7.3576  -7.1415  -7.0792  -7.0293
    -6.6701  -6.4694  -6.3797  -5.9370  -5.7748  -5.6009  -5.3009  -5.1058
    -4.9086  -4.4362  -4.4148  -4.1405  -3.2387  -3.1542  -3.0011  -2.9586
    -2.9275  -2.8802  -2.8415  -2.7615  -2.7327  -2.6295  -2.6136  -2.5329

          k = 0.2996 0.3460-0.3111 ( 31515 PWs)   bands (ev):

   -20.7125 -20.5730 -20.4807 -20.4536 -20.3847 -20.3202 -20.1283 -20.0364
   -20.0261 -19.9498 -19.8929 -19.7944  -8.2186  -8.1958  -8.0514  -8.0304
    -7.9746  -7.8849  -7.5194  -7.4624  -7.3456  -7.1115  -7.0812  -7.0187
    -6.7882  -6.5069  -6.2811  -5.9532  -5.9194  -5.4505  -5.2707  -5.0211
    -4.8055  -4.5848  -4.3928  -4.1177  -3.1601  -3.0942  -3.0162  -2.9492
    -2.9007  -2.8537  -2.7951  -2.7887  -2.7118  -2.6718  -2.6169  -2.5224

          k = 0.1498 0.2595 0.0000 ( 31514 PWs)   bands (ev):

   -20.8177 -20.5231 -20.4740 -20.3578 -20.3320 -20.2586 -20.1876 -20.1228
   -20.0864 -19.9554 -19.9240 -19.7077  -8.2632  -8.1629  -8.0709  -8.0312
    -7.9207  -7.9148  -7.5856  -7.4572  -7.2828  -7.1959  -7.1374  -7.0374
    -7.0067  -6.3074  -6.1837  -5.9308  -5.8224  -5.3957  -5.2725  -5.1467
    -4.9760  -4.5447  -4.4542  -3.9304  -3.0604  -3.0433  -3.0005  -2.9170
    -2.8810  -2.8569  -2.7516  -2.7352  -2.7057  -2.6968  -2.6020  -2.5893

          k = 0.2996-0.1730-1.2442 ( 31484 PWs)   bands (ev):

   -20.7018 -20.6698 -20.4861 -20.4039 -20.3307 -20.2818 -20.1369 -20.1081
   -20.0037 -19.9867 -19.8255 -19.8114  -8.2433  -8.2084  -8.0843  -8.0500
    -7.8931  -7.8922  -7.5785  -7.5167  -7.2632  -7.2200  -7.0522  -7.0115
    -6.7330  -6.6887  -6.2497  -6.0333  -5.7345  -5.5137  -5.1589  -4.9093
    -4.8083  -4.7291  -4.3123  -4.1328  -3.0731  -3.0295  -3.0168  -2.9475
    -2.8821  -2.8327  -2.8099  -2.7443  -2.7340  -2.6944  -2.5707  -2.5561

          k = 0.0000 0.0000 0.9332 ( 31497 PWs)   bands (ev):

   -20.6161 -20.6161 -20.5452 -20.5074 -20.3488 -20.3488 -20.0604 -20.0604
   -19.9469 -19.9202 -19.8912 -19.8912  -8.1970  -8.1970  -8.0691  -7.9741
    -7.9741  -7.9572  -7.5271  -7.4326  -7.4326  -7.0256  -7.0256  -6.9911
    -6.6019  -6.5969  -6.5969  -5.9776  -5.6934  -5.6934  -5.0717  -4.8916
    -4.8916  -4.4549  -4.4549  -4.2872  -3.1075  -3.1075  -2.9931  -2.9416
    -2.8739  -2.8739  -2.8242  -2.7627  -2.7627  -2.6586  -2.6586  -2.5003

          k = 0.4494 0.2595 0.0000 ( 31508 PWs)   bands (ev):

   -20.7289 -20.5797 -20.5756 -20.4056 -20.2817 -20.2747 -20.1517 -20.1453
   -20.0044 -19.9221 -19.8922 -19.7847  -8.2387  -8.1975  -8.1358  -7.9908
    -7.9352  -7.8732  -7.5951  -7.4708  -7.3491  -7.1232  -7.0765  -7.0307
    -6.8281  -6.4746  -6.4013  -5.9870  -5.7538  -5.5065  -5.0802  -5.0420
    -4.8499  -4.5532  -4.4173  -4.1071  -3.0576  -3.0503  -3.0067  -2.9518
    -2.8977  -2.8447  -2.7793  -2.7585  -2.7131  -2.6732  -2.6181  -2.5391

          k = 0.2996 0.1730 0.3111 ( 31488 PWs)   bands (ev):

   -20.7547 -20.5346 -20.4567 -20.4413 -20.3630 -20.3116 -20.1408 -20.1125
   -20.0510 -19.9400 -19.8934 -19.7528  -8.2377  -8.1823  -8.1030  -7.9845
    -7.9800  -7.8414  -7.5524  -7.4344  -7.2648  -7.1960  -7.1545  -7.0643
    -6.8136  -6.3266  -6.1636  -6.0791  -5.8563  -5.5376  -5.2586  -5.0710
    -4.9121  -4.5377  -4.3988  -4.0104  -3.1773  -3.1041  -3.0357  -2.9836
    -2.8959  -2.8578  -2.7884  -2.7595  -2.6831  -2.6440  -2.5905  -2.5729

          k = 0.4494-0.2595-0.9332 ( 31477 PWs)   bands (ev):

   -20.6382 -20.6376 -20.5135 -20.4693 -20.3525 -20.2837 -20.1760 -20.1002
   -19.9734 -19.9235 -19.8789 -19.8054  -8.2650  -8.1713  -8.1327  -7.9912
    -7.9472  -7.8222  -7.5925  -7.3921  -7.2815  -7.2288  -7.0958  -7.0702
    -6.5739  -6.5352  -6.2349  -6.0881  -5.9112  -5.6201  -5.2197  -4.9527
    -4.6538  -4.6322  -4.4423  -4.0742  -3.1791  -3.1212  -3.0872  -2.9833
    -2.9509  -2.8718  -2.7430  -2.7223  -2.6958  -2.6566  -2.5921  -2.5402

          k = 0.2996-0.3460-0.6221 ( 31498 PWs)   bands (ev):

   -20.5973 -20.5971 -20.5038 -20.4973 -20.3797 -20.3789 -20.1024 -20.0977
   -19.9616 -19.9558 -19.8496 -19.8370  -8.2785  -8.0907  -8.0615  -8.0445
    -8.0112  -7.8267  -7.5187  -7.3998  -7.2639  -7.2187  -7.0778  -7.0727
    -6.5396  -6.4163  -6.2669  -6.1417  -5.8404  -5.8052  -5.1436  -5.0736
    -4.6632  -4.6199  -4.4584  -4.0589  -3.2882  -3.1342  -3.0857  -3.0196
    -2.9710  -2.8453  -2.7836  -2.7471  -2.7280  -2.6129  -2.5973  -2.5237

          k = 0.0000 0.0000-1.8663 ( 31500 PWs)   bands (ev):

   -20.5702 -20.5623 -20.4725 -20.4725 -20.4647 -20.4647 -20.0340 -20.0340
   -20.0100 -20.0100 -19.8358 -19.8267  -8.3229  -8.0584  -8.0584  -8.0351
    -8.0351  -7.7963  -7.5654  -7.3951  -7.1753  -7.1753  -7.1441  -7.1441
    -6.3808  -6.1953  -6.1590  -6.1590  -6.1365  -6.1365  -4.9386  -4.9386
    -4.6943  -4.6943  -4.4845  -4.0107  -3.3177  -3.1354  -3.1354  -3.0525
    -3.0525  -2.7957  -2.7776  -2.6912  -2.6912  -2.6250  -2.6250  -2.5006

          k = 0.2996-0.3460 0.3111 ( 31515 PWs)   bands (ev):

   -20.7124 -20.5732 -20.4820 -20.4533 -20.3822 -20.3210 -20.1287 -20.0468
   -20.0127 -19.9564 -19.8879 -19.7958  -8.2335  -8.1641  -8.0864  -8.0280
    -7.9455  -7.8931  -7.5624  -7.4340  -7.3219  -7.1465  -7.0484  -7.0380
    -6.7826  -6.4434  -6.3678  -6.0068  -5.7757  -5.5087  -5.3483  -4.9383
    -4.7876  -4.5708  -4.4559  -4.0989  -3.1669  -3.0684  -3.0321  -2.9458
    -2.9043  -2.8593  -2.7944  -2.7899  -2.7283  -2.6435  -2.6177  -2.5300

     highest occupied level (ev):    -2.5003

!    total energy              =    -413.81564753 Ry
     estimated scf accuracy    <       0.00000005 Ry

     The total energy is the sum of the following terms:
     one-electron contribution =    -298.37342549 Ry
     hartree contribution      =     182.68076427 Ry
     xc contribution           =    -100.72377754 Ry
     ewald contribution        =    -197.39920877 Ry

     convergence has been achieved in  12 iterations

     Forces acting on atoms (cartesian axes, Ry/au):

     atom    1 type  2   force =    -0.04508447    0.09266953    0.05034516
     atom    2 type  2   force =     0.04508447   -0.09266953   -0.05034516
     atom    3 type  2   force =    -0.05771193   -0.08537907    0.05034516
     atom    4 type  2   force =     0.05771193    0.08537907   -0.05034516
     atom    5 type  2   force =     0.10279641   -0.00729047    0.05034516
     atom    6 type  2   force =    -0.10279641    0.00729047   -0.05034516
     atom    7 type  2   force =    -0.05444249    0.03996048   -0.03639152
     atom    8 type  2   force =     0.05444249   -0.03996048    0.03639152
     atom    9 type  2   force =    -0.00738555   -0.06712882   -0.03639152
     atom   10 type  2   force =     0.00738555    0.06712882    0.03639152
     atom   11 type  2   force =     0.06182804    0.02716834   -0.03639152
     atom   12 type  2   force =    -0.06182804   -0.02716834    0.03639152
     atom   13 type  1   force =     0.01432014   -0.04940275   -0.04130235
     atom   14 type  1   force =    -0.01432014    0.04940275    0.04130235
     atom   15 type  1   force =     0.03562396    0.03710298   -0.04130235
     atom   16 type  1   force =    -0.03562396   -0.03710298    0.04130235
     atom   17 type  1   force =    -0.04994410    0.01229977   -0.04130235
     atom   18 type  1   force =     0.04994410   -0.01229977    0.04130235
     atom   19 type  1   force =     0.02826584   -0.04985634   -0.01885749
     atom   20 type  1   force =    -0.02826584    0.04985634    0.01885749
     atom   21 type  1   force =     0.02904394    0.04940710   -0.01885749
     atom   22 type  1   force =    -0.02904394   -0.04940710    0.01885749
     atom   23 type  1   force =    -0.05730978    0.00044924   -0.01885749
     atom   24 type  1   force =     0.05730978   -0.00044924    0.01885749
     atom   25 type  1   force =    -0.02175666   -0.03080903    0.01396449
     atom   26 type  1   force =     0.02175666    0.03080903   -0.01396449
     atom   27 type  1   force =     0.03755973   -0.00343730    0.01396449
     atom   28 type  1   force =    -0.03755973    0.00343730   -0.01396449
     atom   29 type  1   force =    -0.01580307    0.03424633    0.01396449
     atom   30 type  1   force =     0.01580307   -0.03424633   -0.01396449
     atom   31 type  1   force =    -0.04739302    0.00695252    0.03085428
     atom   32 type  1   force =     0.04739302   -0.00695252   -0.03085428
     atom   33 type  1   force =     0.01767545   -0.04451982    0.03085428
     atom   34 type  1   force =    -0.01767545    0.04451982   -0.03085428
     atom   35 type  1   force =     0.02971757    0.03756730    0.03085428
     atom   36 type  1   force =    -0.02971757   -0.03756730   -0.03085428

     Total force =     0.437464     Total SCF correction =     0.000325


     Computing stress (Cartesian axis) and pressure

          total   stress  (Ry/bohr**3)                   (kbar)     P=      -63.19
  -0.00050874   0.00000000   0.00000000          -74.84        0.00        0.00
  -0.00000000  -0.00050874  -0.00000000           -0.00      -74.84       -0.00
   0.00000000  -0.00000000  -0.00027127            0.00       -0.00      -39.90


     BFGS Geometry Optimization
     Energy error            =      0.0E+00 Ry
     Gradient error          =      1.0E-01 Ry/Bohr

     number of scf cycles    =   1
     number of bfgs steps    =   0

     energy             new  =    -413.8156475315 Ry

     new trust radius        =       0.1146947552 bohr
     new conv_thr            =       0.0000001000 Ry


ATOMIC_POSITIONS (crystal)
O                0.2732372013        0.0324448064        0.8578368657
O                0.7267627987        0.9675552046        0.1421631043
O                0.8578368657        0.2732372013        0.0324448064
O                0.1421631043        0.7267627987        0.9675552046
O                0.0324448064        0.8578368657        0.2732372013
O                0.9675552046        0.1421631043        0.7267627987
O                0.4718891208        0.7488256919        0.3302359921
O                0.5281108792        0.2511743081        0.6697639779
O                0.3302359921        0.4718891208        0.7488256919
O                0.6697639779        0.5281108792        0.2511743081
O                0.7488256919        0.3302359921        0.4718891208
O                0.2511743081        0.6697639779        0.5281108792
H                0.1632869301        0.0632992177        0.8071435574
H                0.8367130559        0.9367007743        0.1928564426
H                0.8071435574        0.1632869301        0.0632992177
H                0.1928564426        0.8367130559        0.9367007743
H                0.0632992177        0.8071435574        0.1632869301
H                0.9367007743        0.1928564426        0.8367130559
H                0.4137144918        0.2011386985        0.9954576444
H                0.5862855082        0.7988613165        0.0045423346
H                0.9954576444        0.4137144918        0.2011386985
H                0.0045423346        0.5862855082        0.7988613165
H                0.2011386985        0.9954576444        0.4137144918
H                0.7988613165        0.0045423346        0.5862855082
H                0.7199990072        0.4007372481        0.3977361600
H                0.2800009928        0.5992627219        0.6022638700
H                0.3977361600        0.7199990072        0.4007372481
H                0.6022638700        0.2800009928        0.5992627219
H                0.4007372481        0.3977361600        0.7199990072
H                0.5992627219        0.6022638700        0.2800009928
H                0.7415051647        0.2058779111        0.3642891981
H                0.2584948353        0.7941220739        0.6357108019
H                0.3642891981        0.7415051647        0.2058779111
H                0.6357108019        0.2584948353        0.7941220739
H                0.2058779111        0.3642891981        0.7415051647
H                0.7941220739        0.6357108019        0.2584948353



     Writing config-only to output data dir ./iceII/iceII.save/ :
     XML data file
     NEW-OLD atomic charge density approx. for the potential

     negative rho (up, down):  5.059E-07 0.000E+00

     total cpu time spent up to now is       15.0 secs

     per-process dynamical memory:    26.7 Mb

     Self-consistent Calculation

     iteration #  1     ecut=    90.00 Ry     beta= 0.70
     Davidson diagonalization with overlap
     ethr =  1.00E-06,  avg # of iterations = 10.0

     negative rho (up, down):  4.390E-07 0.000E+00

     total cpu time spent up to now is       17.4 secs

     total energy              =    -413.89102197 Ry
     estimated scf accuracy    <       0.05919851 Ry

     iteration #  2     ecut=    90.00 Ry     beta= 0.70
     Davidson diagonalization with overlap
     ethr =  6.17E-05,  avg # of iterations =  3.0

     negative rho (up, down):  4.290E-07 0.000E+00

     total cpu time spent up to now is       18.4 secs

     total energy              =    -413.90739513 Ry
     estimated scf accuracy    <       0.02061219 Ry

     iteration #  3     ecut=    90.00 Ry     beta= 0.70
     Davidson diagonalization with overlap
     ethr =  2.15E-05,  avg # of iterations =  2.0

     negative rho (up, down):  4.616E-07 0.000E+00

     total cpu time spent up to now is       19.2 secs

     total energy              =    -413.91036846 Ry
     estimated scf accuracy    <       0.00061368 Ry

     iteration #  4     ecut=    90.00 Ry     beta= 0.70
     Davidson diagonalization with overlap
     ethr =  6.39E-07,  avg # of iterations =  5.0

     negative rho (up, down):  5.048E-07 0.000E+00

     total cpu time spent up to now is       20.4 secs

     total energy              =    -413.91076607 Ry
     estimated scf accuracy    <       0.00071293 Ry

     iteration #  5     ecut=    90.00 Ry     beta= 0.70
     Davidson diagonalization with overlap
     ethr =  6.39E-07,  avg # of iterations =  2.0

     negative rho (up, down):  5.336E-07 0.000E+00

     total cpu time spent up to now is       21.2 secs

     total energy              =    -413.91081869 Ry
     estimated scf accuracy    <       0.00006703 Ry

     iteration #  6     ecut=    90.00 Ry     beta= 0.70
     Davidson diagonalization with overlap
     ethr =  6.98E-08,  avg # of iterations =  3.9

     negative rho (up, down):  5.244E-07 0.000E+00

     total cpu time spent up to now is       22.4 secs

     total energy              =    -413.91084772 Ry
     estimated scf accuracy    <       0.00007937 Ry

     iteration #  7     ecut=    90.00 Ry     beta= 0.70
     Davidson diagonalization with overlap
     ethr =  6.98E-08,  avg # of iterations =  2.0

     negative rho (up, down):  5.209E-07 0.000E+00

     total cpu time spent up to now is       23.3 secs

     total energy              =    -413.91086194 Ry
     estimated scf accuracy    <       0.00000115 Ry

     iteration #  8     ecut=    90.00 Ry     beta= 0.70
     Davidson diagonalization with overlap
     ethr =  1.20E-09,  avg # of iterations =  5.0

     negative rho (up, down):  5.214E-07 0.000E+00

     total cpu time spent up to now is       24.6 secs

     total energy              =    -413.91086346 Ry
     estimated scf accuracy    <       0.00000083 Ry

     iteration #  9     ecut=    90.00 Ry     beta= 0.70
     Davidson diagonalization with overlap
     ethr =  8.68E-10,  avg # of iterations =  1.0

     negative rho (up, down):  5.222E-07 0.000E+00

     total cpu time spent up to now is       25.2 secs

     total energy              =    -413.91086335 Ry
     estimated scf accuracy    <       0.00000028 Ry

     iteration # 10     ecut=    90.00 Ry     beta= 0.70
     Davidson diagonalization with overlap
     ethr =  2.89E-10,  avg # of iterations =  2.0

     negative rho (up, down):  5.221E-07 0.000E+00

     total cpu time spent up to now is       26.1 secs

     End of self-consistent calculation

          k = 0.0000 0.0000 0.0000 ( 31483 PWs)   bands (ev):

   -21.2970 -20.9340 -20.9340 -20.7304 -20.7304 -20.7234 -20.7234 -20.7086
   -20.6999 -20.4562 -20.4562 -20.2164  -8.8054  -8.6281  -8.5694  -8.5694
    -8.5609  -8.5609  -8.0832  -8.0832  -7.9914  -7.9722  -7.9722  -7.8388
    -7.0785  -6.0698  -6.0698  -5.5036  -5.5036  -5.4571  -5.4571  -5.1820
    -5.1278  -4.4920  -4.4920  -3.8809  -3.1726  -3.1726  -3.1325  -2.9657
    -2.9657  -2.9533  -2.8177  -2.7948  -2.7948  -2.7862  -2.7209  -2.7209

          k =-0.1498-0.0865 0.3111 ( 31495 PWs)   bands (ev):

   -21.2362 -20.9619 -20.9268 -20.8499 -20.8390 -20.7843 -20.6575 -20.6188
   -20.5814 -20.4648 -20.4318 -20.2622  -8.7669  -8.6576  -8.6101  -8.5980
    -8.5394  -8.4868  -8.0992  -8.0695  -7.9932  -7.9410  -7.9175  -7.8854
    -6.8999  -6.2100  -6.1048  -5.8157  -5.5983  -5.3746  -5.2973  -5.0933
    -5.0284  -4.4887  -4.4213  -3.9969  -3.2652  -3.2040  -3.1316  -3.0094
    -2.9989  -2.9635  -2.9170  -2.8346  -2.7800  -2.7365  -2.7146  -2.6701

          k = 0.2996 0.1730-0.6221 ( 31518 PWs)   bands (ev):

   -21.0927 -21.0647 -20.9576 -20.9120 -20.8548 -20.8351 -20.6161 -20.5888
   -20.4842 -20.4611 -20.3947 -20.3577  -8.7030  -8.6935  -8.6325  -8.5990
    -8.5325  -8.4736  -8.0849  -8.0504  -7.9896  -7.9758  -7.8793  -7.8688
    -6.5767  -6.4425  -6.1608  -6.0193  -5.5950  -5.5033  -5.2168  -5.0592
    -4.6899  -4.5738  -4.3654  -4.1605  -3.3467  -3.2194  -3.1298  -3.0675
    -3.0295  -3.0170  -2.9062  -2.8558  -2.8430  -2.7039  -2.6914  -2.6279

          k =-0.1498 0.0865 0.6221 ( 31523 PWs)   bands (ev):

   -21.1148 -21.0029 -20.9960 -20.9015 -20.8788 -20.8321 -20.6127 -20.5528
   -20.5230 -20.4373 -20.4228 -20.3447  -8.7102  -8.6747  -8.6595  -8.5709
    -8.5459  -8.4713  -8.0764  -8.0612  -8.0209  -7.9239  -7.8954  -7.8725
    -6.6060  -6.3375  -6.2976  -5.8778  -5.6970  -5.5435  -5.1560  -4.9813
    -4.8303  -4.4501  -4.4240  -4.1658  -3.3283  -3.2529  -3.1165  -3.0637
    -3.0424  -2.9705  -2.9450  -2.8567  -2.8281  -2.7130  -2.6946  -2.6223

          k = 0.2996 0.3460-0.3111 ( 31515 PWs)   bands (ev):

   -21.1576 -21.0381 -20.9441 -20.9208 -20.8480 -20.8014 -20.6209 -20.5574
   -20.5267 -20.4602 -20.4156 -20.3236  -8.7335  -8.7054  -8.6156  -8.5836
    -8.5413  -8.4639  -8.1490  -8.1228  -8.0370  -7.9039  -7.8768  -7.8523
    -6.6519  -6.3635  -6.1375  -5.9081  -5.8667  -5.4102  -5.0916  -4.9846
    -4.7863  -4.5626  -4.3982  -4.1323  -3.2642  -3.2040  -3.1367  -3.0734
    -2.9916  -2.9439  -2.9020  -2.8819  -2.8092  -2.7549  -2.6975  -2.6083

          k = 0.1498 0.2595 0.0000 ( 31514 PWs)   bands (ev):

   -21.2534 -20.9933 -20.9487 -20.8252 -20.7988 -20.7335 -20.6867 -20.6260
   -20.5934 -20.4649 -20.4337 -20.2519  -8.7857  -8.6677  -8.6103  -8.5973
    -8.5113  -8.4978  -8.1721  -8.1227  -7.9933  -7.9587  -7.9114  -7.8387
    -6.9182  -6.1641  -6.0623  -5.8481  -5.7352  -5.3384  -5.1943  -5.0479
    -4.9826  -4.5403  -4.4653  -3.9592  -3.1740  -3.1605  -3.1475  -3.0305
    -2.9726  -2.9494  -2.8427  -2.8271  -2.8172  -2.7786  -2.6838  -2.6721

          k = 0.2996-0.1730-1.2442 ( 31484 PWs)   bands (ev):

   -21.1463 -21.1249 -20.9611 -20.8639 -20.8051 -20.7468 -20.6515 -20.6071
   -20.5298 -20.4837 -20.3568 -20.3322  -8.7479  -8.7178  -8.6213  -8.6056
    -8.4853  -8.4667  -8.2249  -8.1590  -8.0063  -7.9524  -7.8644  -7.8444
    -6.5472  -6.5191  -6.0908  -6.0105  -5.6716  -5.4592  -5.0856  -4.9150
    -4.7587  -4.6990  -4.3160  -4.1369  -3.1888  -3.1512  -3.1454  -3.0738
    -2.9818  -2.9177  -2.8965  -2.8522  -2.8187  -2.7804  -2.6548  -2.6411

          k = 0.0000 0.0000 0.9332 ( 31497 PWs)   bands (ev):

   -21.0692 -21.0692 -21.0292 -20.9459 -20.8219 -20.8219 -20.5663 -20.5663
   -20.4892 -20.4134 -20.4134 -20.4085  -8.7102  -8.7102  -8.6524  -8.5333
    -8.5333  -8.5116  -8.1732  -8.0947  -8.0947  -7.8615  -7.8615  -7.8375
    -6.4256  -6.4256  -6.3997  -5.9544  -5.6577  -5.6577  -4.8976  -4.8535
    -4.8535  -4.4482  -4.4482  -4.3027  -3.2184  -3.2184  -3.1207  -3.0778
    -2.9666  -2.9666  -2.9238  -2.8565  -2.8565  -2.7337  -2.7337  -2.5851

          k = 0.4494 0.2595 0.0000 ( 31508 PWs)   bands (ev):

   -21.1732 -21.0424 -21.0384 -20.8593 -20.7719 -20.7446 -20.6552 -20.6369
   -20.5317 -20.4359 -20.4048 -20.3148  -8.7514  -8.6989  -8.6633  -8.5621
    -8.5178  -8.4515  -8.2361  -8.1248  -8.0562  -7.9029  -7.8817  -7.8486
    -6.6514  -6.3042  -6.2419  -5.9744  -5.6771  -5.4354  -5.0543  -5.0152
    -4.7942  -4.5299  -4.4178  -4.1150  -3.1753  -3.1656  -3.1400  -3.0788
    -2.9926  -2.9317  -2.8801  -2.8517  -2.8031  -2.7590  -2.7004  -2.6236

          k = 0.2996 0.1730 0.3111 ( 31488 PWs)   bands (ev):

   -21.1960 -21.0022 -20.9287 -20.9036 -20.8315 -20.7943 -20.6309 -20.6219
   -20.5397 -20.4659 -20.4102 -20.2894  -8.7520  -8.6824  -8.6315  -8.5796
    -8.5464  -8.4430  -8.1667  -8.0565  -7.9916  -7.9719  -7.8893  -7.8853
    -6.7587  -6.2259  -6.0973  -5.9509  -5.7593  -5.4145  -5.1999  -5.0248
    -4.8649  -4.5312  -4.4056  -4.0323  -3.2810  -3.2076  -3.1565  -3.0681
    -3.0060  -2.9565  -2.8953  -2.8520  -2.7758  -2.7422  -2.6750  -2.6579

          k = 0.4494-0.2595-0.9332 ( 31477 PWs)   bands (ev):

   -21.0965 -21.0882 -20.9813 -20.9205 -20.8263 -20.7740 -20.6592 -20.6058
   -20.4761 -20.4558 -20.4018 -20.3284  -8.7286  -8.7029  -8.6580  -8.5740
    -8.5329  -8.4131  -8.2090  -8.0738  -7.9960  -7.9766  -7.8860  -7.8744
    -6.4923  -6.3788  -6.1110  -6.0789  -5.7996  -5.4632  -5.1989  -4.9480
    -4.6282  -4.5888  -4.4345  -4.0858  -3.2865  -3.2219  -3.1870  -3.0763
    -3.0355  -2.9903  -2.8501  -2.8195  -2.7963  -2.7485  -2.6805  -2.6244

          k = 0.2996-0.3460-0.6221 ( 31498 PWs)   bands (ev):

   -21.0709 -21.0328 -20.9747 -20.9491 -20.8610 -20.8524 -20.6041 -20.5881
   -20.4764 -20.4634 -20.3975 -20.3486  -8.7332  -8.6547  -8.6301  -8.5963
    -8.5745  -8.4204  -8.1037  -8.0781  -7.9724  -7.9641  -7.8978  -7.8928
    -6.4663  -6.3448  -6.1636  -6.1037  -5.7050  -5.6653  -5.0685  -4.9976
    -4.6387  -4.5948  -4.4466  -4.0902  -3.3723  -3.2323  -3.1889  -3.1017
    -3.0684  -2.9357  -2.9012  -2.8509  -2.8310  -2.7046  -2.6892  -2.6075

          k = 0.0000 0.0000-1.8663 ( 31500 PWs)   bands (ev):

   -21.0528 -20.9871 -20.9532 -20.9532 -20.9179 -20.9179 -20.5589 -20.5589
   -20.4965 -20.4965 -20.3876 -20.3383  -8.7477  -8.6295  -8.6295  -8.5949
    -8.5949  -8.3862  -8.1229  -8.0990  -7.9442  -7.9442  -7.9291  -7.9291
    -6.3712  -6.2689  -6.0136  -6.0136  -5.9554  -5.9554  -4.8990  -4.8990
    -4.6726  -4.6726  -4.4438  -4.0416  -3.3973  -3.2288  -3.2288  -3.1302
    -3.1302  -2.9139  -2.8842  -2.7951  -2.7951  -2.7222  -2.7222  -2.5837

          k = 0.2996-0.3460 0.3111 ( 31515 PWs)   bands (ev):

   -21.1581 -21.0322 -20.9619 -20.9108 -20.8435 -20.8013 -20.6248 -20.5659
   -20.4964 -20.4885 -20.4051 -20.3257  -8.7421  -8.6837  -8.6278  -8.6014
    -8.5122  -8.4754  -8.1681  -8.1062  -8.0321  -7.9047  -7.8775  -7.8541
    -6.6585  -6.2945  -6.2369  -5.9434  -5.7351  -5.4625  -5.2013  -4.8730
    -4.7471  -4.5803  -4.4436  -4.1172  -3.2689  -3.1885  -3.1495  -3.0637
    -2.9860  -2.9576  -2.8966  -2.8911  -2.8236  -2.7265  -2.7005  -2.6151

     highest occupied level (ev):    -2.5837

!    total energy              =    -413.91086342 Ry
     estimated scf accuracy    <          2.3E-09 Ry

     The total energy is the sum of the following terms:
     one-electron contribution =    -307.10868037 Ry
     hartree contribution      =     186.65423104 Ry
     xc contribution           =    -101.70100187 Ry
     ewald contribution        =    -191.75541223 Ry

     convergence has been achieved in  10 iterations

     Forces acting on atoms (cartesian axes, Ry/au):

     atom    1 type  2   force =    -0.00183612   -0.01012339   -0.00275513
     atom    2 type  2   force =     0.00183612    0.01012339    0.00275513
     atom    3 type  2   force =     0.00968517    0.00347157   -0.00275513
     atom    4 type  2   force =    -0.00968517   -0.00347157    0.00275513
     atom    5 type  2   force =    -0.00784906    0.00665182   -0.00275513
     atom    6 type  2   force =     0.00784906   -0.00665182    0.00275513
     atom    7 type  2   force =     0.00645635   -0.01264484    0.00625534
     atom    8 type  2   force =    -0.00645635    0.01264484   -0.00625534
     atom    9 type  2   force =     0.00772258    0.01191378    0.00625534
     atom   10 type  2   force =    -0.00772258   -0.01191378   -0.00625534
     atom   11 type  2   force =    -0.01417893    0.00073106    0.00625534
     atom   12 type  2   force =     0.01417893   -0.00073106   -0.00625534
     atom   13 type  1   force =    -0.01762771    0.02268830   -0.04293178
     atom   14 type  1   force =     0.01762771   -0.02268830    0.04293178
     atom   15 type  1   force =    -0.01083479   -0.02661019   -0.04293178
     atom   16 type  1   force =     0.01083479    0.02661019    0.04293178
     atom   17 type  1   force =     0.02846250    0.00392190   -0.04293178
     atom   18 type  1   force =    -0.02846250   -0.00392190    0.04293178
     atom   19 type  1   force =     0.02010333   -0.01710953    0.03927583
     atom   20 type  1   force =    -0.02010333    0.01710953   -0.03927583
     atom   21 type  1   force =     0.00476563    0.02596476    0.03927583
     atom   22 type  1   force =    -0.00476563   -0.02596476   -0.03927583
     atom   23 type  1   force =    -0.02486895   -0.00885523    0.03927583
     atom   24 type  1   force =     0.02486895    0.00885523   -0.03927583
     atom   25 type  1   force =     0.00510816    0.01890536    0.00386251
     atom   26 type  1   force =    -0.00510816   -0.01890536   -0.00386251
     atom   27 type  1   force =    -0.01892660   -0.00502889    0.00386251
     atom   28 type  1   force =     0.01892660    0.00502889   -0.00386251
     atom   29 type  1   force =     0.01381844   -0.01387648    0.00386251
     atom   30 type  1   force =    -0.01381844    0.01387648   -0.00386251
     atom   31 type  1   force =     0.00474199   -0.01677673   -0.00620473
     atom   32 type  1   force =    -0.00474199    0.01677673    0.00620473
     atom   33 type  1   force =     0.01215808    0.01249505   -0.00620473
     atom   34 type  1   force =    -0.01215808   -0.01249505    0.00620473
     atom   35 type  1   force =    -0.01690007    0.00428168   -0.00620473
     atom   36 type  1   force =     0.01690007   -0.00428168    0.00620473

     Total force =     0.189786     Total SCF correction =     0.000082


     Computing stress (Cartesian axis) and pressure

          total   stress  (Ry/bohr**3)                   (kbar)     P=       16.09
   0.00005578  -0.00000000   0.00000000            8.21       -0.00        0.00
   0.00000000   0.00005578   0.00000000            0.00        8.21        0.00
   0.00000000   0.00000000   0.00021661            0.00        0.00       31.86

     Energy error            =      9.5E-02 Ry
     Gradient error          =      4.3E-02 Ry/Bohr

     number of scf cycles    =   2
     number of bfgs steps    =   1

     energy             old  =    -413.8156475315 Ry
     energy             new  =    -413.9108634230 Ry

     CASE: energy            _new < energy            _old

     new trust radius        =       0.0507210414 bohr
     new conv_thr            =       0.0000001000 Ry


ATOMIC_POSITIONS (crystal)
O                0.2732113942        0.0331531002        0.8585276260
O                0.7267886058        0.9668469108        0.1414723440
O                0.8585276260        0.2732113942        0.0331531002
O                0.1414723440        0.7267886058        0.9668469108
O                0.0331531002        0.8585276260        0.2732113942
O                0.9668469108        0.1414723440        0.7267886058
O                0.4719053450        0.7485764024        0.3304691145
O                0.5280946550        0.2514235976        0.6695308555
O                0.3304691145        0.4719053450        0.7485764024
O                0.6695308555        0.5280946550        0.2514235976
O                0.7485764024        0.3304691145        0.4719053450
O                0.2514235976        0.6695308555        0.5280946550
H                0.1585309596        0.0600292479        0.8035213643
H                0.8414690264        0.9399707441        0.1964786357
H                0.8035213643        0.1585309596        0.0600292479
H                0.1964786357        0.8414690264        0.9399707441
H                0.0600292479        0.8035213643        0.1585309596
H                0.9399707441        0.1964786357        0.8414690264
H                0.4179981778        0.2028268808        0.9978752830
H                0.5820018222        0.7971731342        0.0021246960
H                0.9978752830        0.4179981778        0.2028268808
H                0.0021246960        0.5820018222        0.7971731342
H                0.2028268808        0.9978752830        0.4179981778
H                0.7971731342        0.0021246960        0.5820018222
H                0.7202424877        0.4018106847        0.3978773326
H                0.2797575123        0.5981892853        0.6021226974
H                0.3978773326        0.7202424877        0.4018106847
H                0.6021226974        0.2797575123        0.5981892853
H                0.4018106847        0.3978773326        0.7202424877
H                0.5981892853        0.6021226974        0.2797575123
H                0.7416442305        0.2051354422        0.3646827401
H                0.2583557695        0.7948645428        0.6353172599
H                0.3646827401        0.7416442305        0.2051354422
H                0.6353172599        0.2583557695        0.7948645428
H                0.2051354422        0.3646827401        0.7416442305
H                0.7948645428        0.6353172599        0.2583557695



     Writing config-only to output data dir ./iceII/iceII.save/ :
     XML data file
     NEW-OLD atomic charge density approx. for the potential

     negative rho (up, down):  4.942E-07 0.000E+00

     total cpu time spent up to now is       27.3 secs

     per-process dynamical memory:    27.3 Mb

     Self-consistent Calculation

     iteration #  1     ecut=    90.00 Ry     beta= 0.70
     Davidson diagonalization with overlap
     ethr =  1.00E-06,  avg # of iterations =  6.0

     negative rho (up, down):  3.982E-07 0.000E+00

     total cpu time spent up to now is       28.8 secs

     total energy              =    -413.93497296 Ry
     estimated scf accuracy    <       0.00140888 Ry

     iteration #  2     ecut=    90.00 Ry     beta= 0.70
     Davidson diagonalization with overlap
     ethr =  1.47E-06,  avg # of iterations =  3.0

     negative rho (up, down):  4.101E-07 0.000E+00

     total cpu time spent up to now is       29.7 secs

     total energy              =    -413.93532725 Ry
     estimated scf accuracy    <       0.00035250 Ry

     iteration #  3     ecut=    90.00 Ry     beta= 0.70
     Davidson diagonalization with overlap
     ethr =  3.67E-07,  avg # of iterations =  2.0

     negative rho (up, down):  4.163E-07 0.000E+00

     total cpu time spent up to now is       30.5 secs

     total energy              =    -413.93537804 Ry
     estimated scf accuracy    <       0.00001517 Ry

     iteration #  4     ecut=    90.00 Ry     beta= 0.70
     Davidson diagonalization with overlap
     ethr =  1.58E-08,  avg # of iterations =  4.6

     negative rho (up, down):  4.089E-07 0.000E+00

     total cpu time spent up to now is       31.6 secs

     total energy              =    -413.93538362 Ry
     estimated scf accuracy    <       0.00001392 Ry

     iteration #  5     ecut=    90.00 Ry     beta= 0.70
     Davidson diagonalization with overlap
     ethr =  1.45E-08,  avg # of iterations =  2.0

     negative rho (up, down):  4.057E-07 0.000E+00

     total cpu time spent up to now is       32.4 secs

     total energy              =    -413.93538535 Ry
     estimated scf accuracy    <       0.00000070 Ry

     iteration #  6     ecut=    90.00 Ry     beta= 0.70
     Davidson diagonalization with overlap
     ethr =  7.31E-10,  avg # of iterations =  5.0

     negative rho (up, down):  4.070E-07 0.000E+00

     total cpu time spent up to now is       33.7 secs

     total energy              =    -413.93538575 Ry
     estimated scf accuracy    <       0.00000079 Ry

     iteration #  7     ecut=    90.00 Ry     beta= 0.70
     Davidson diagonalization with overlap
     ethr =  7.31E-10,  avg # of iterations =  2.0

     negative rho (up, down):  4.079E-07 0.000E+00

     total cpu time spent up to now is       34.5 secs

     End of self-consistent calculation

          k = 0.0000 0.0000 0.0000 ( 31483 PWs)   bands (ev):

   -21.1844 -20.8088 -20.8088 -20.6118 -20.6118 -20.5988 -20.5988 -20.5856
   -20.5680 -20.3227 -20.3227 -20.0833  -8.7833  -8.6156  -8.5545  -8.5545
    -8.5522  -8.5522  -8.1019  -8.1019  -8.0232  -7.9986  -7.9986  -7.8675
    -7.0089  -5.9552  -5.9552  -5.4721  -5.4721  -5.3436  -5.3436  -5.0614
    -5.0581  -4.4174  -4.4174  -3.7983  -3.1585  -3.1585  -3.1007  -2.9364
    -2.9364  -2.9192  -2.8020  -2.7641  -2.7544  -2.7544  -2.7041  -2.7041

          k =-0.1498-0.0865 0.3111 ( 31495 PWs)   bands (ev):

   -21.1231 -20.8392 -20.8017 -20.7340 -20.7115 -20.6549 -20.5359 -20.4973
   -20.4556 -20.3302 -20.2982 -20.1291  -8.7462  -8.6420  -8.5986  -8.5849
    -8.5288  -8.4765  -8.1205  -8.0914  -8.0189  -7.9668  -7.9410  -7.9111
    -6.8263  -6.1142  -5.9976  -5.7400  -5.5721  -5.2899  -5.1777  -5.0156
    -4.9063  -4.4134  -4.3470  -3.9252  -3.2462  -3.1887  -3.1024  -2.9878
    -2.9716  -2.9284  -2.8990  -2.7987  -2.7615  -2.7017  -2.6922  -2.6473

          k = 0.2996 0.1730-0.6221 ( 31518 PWs)   bands (ev):

   -20.9819 -20.9446 -20.8284 -20.7968 -20.7281 -20.7035 -20.4966 -20.4648
   -20.3657 -20.3206 -20.2598 -20.2249  -8.6846  -8.6742  -8.6197  -8.5882
    -8.5252  -8.4612  -8.1043  -8.0750  -8.0140  -7.9992  -7.9021  -7.8921
    -6.4783  -6.3692  -6.0599  -5.9681  -5.5363  -5.4664  -5.0645  -4.9359
    -4.5742  -4.5006  -4.2975  -4.1158  -3.3243  -3.2050  -3.1107  -3.0349
    -2.9945  -2.9926  -2.8824  -2.8506  -2.8043  -2.6876  -2.6488  -2.6047

          k =-0.1498 0.0865 0.6221 ( 31523 PWs)   bands (ev):

   -21.0019 -20.8844 -20.8736 -20.7783 -20.7528 -20.7025 -20.4922 -20.4291
   -20.3970 -20.3059 -20.2875 -20.2103  -8.6903  -8.6570  -8.6451  -8.5668
    -8.5323  -8.4600  -8.0970  -8.0847  -8.0447  -7.9468  -7.9191  -7.8959
    -6.5131  -6.2538  -6.2179  -5.8074  -5.6431  -5.4868  -5.0311  -4.8398
    -4.7286  -4.3827  -4.3445  -4.1218  -3.3078  -3.2337  -3.1006  -3.0228
    -3.0153  -2.9484  -2.9239  -2.8296  -2.8084  -2.6914  -2.6573  -2.5971

          k = 0.2996 0.3460-0.3111 ( 31515 PWs)   bands (ev):

   -21.0430 -20.9111 -20.8470 -20.7830 -20.7238 -20.6715 -20.5026 -20.4362
   -20.3657 -20.3602 -20.2732 -20.1928  -8.7133  -8.6854  -8.6001  -8.5691
    -8.5348  -8.4557  -8.1743  -8.1473  -8.0627  -7.9279  -7.9013  -7.8757
    -6.5736  -6.2663  -6.0401  -5.8457  -5.8110  -5.3315  -4.9466  -4.8752
    -4.7208  -4.4754  -4.3269  -4.0759  -3.2438  -3.1863  -3.1158  -3.0418
    -2.9616  -2.9149  -2.8780  -2.8578  -2.7960  -2.7345  -2.6571  -2.5820

          k = 0.1498 0.2595 0.0000 ( 31514 PWs)   bands (ev):

   -21.1398 -20.8708 -20.8254 -20.7052 -20.6772 -20.6111 -20.5592 -20.4996
   -20.4622 -20.3332 -20.3018 -20.1196  -8.7635  -8.6510  -8.5952  -8.5814
    -8.5021  -8.4913  -8.1978  -8.1457  -8.0224  -7.9822  -7.9361  -7.8659
    -6.8466  -6.0496  -5.9634  -5.7781  -5.6776  -5.2438  -5.0916  -4.9430
    -4.9090  -4.4645  -4.3969  -3.8799  -3.1581  -3.1454  -3.1211  -3.0009
    -2.9405  -2.9149  -2.8198  -2.8133  -2.7887  -2.7518  -2.6559  -2.6449

          k = 0.2996-0.1730-1.2442 ( 31484 PWs)   bands (ev):

   -21.0300 -21.0072 -20.8391 -20.7450 -20.6795 -20.6279 -20.5177 -20.4817
   -20.3912 -20.3577 -20.2265 -20.2013  -8.7263  -8.6964  -8.6044  -8.5895
    -8.4758  -8.4622  -8.2535  -8.1858  -8.0355  -7.9745  -7.8902  -7.8687
    -6.4596  -6.4441  -5.9952  -5.9392  -5.5960  -5.3547  -4.9640  -4.8366
    -4.6593  -4.6387  -4.2354  -4.0749  -3.1673  -3.1320  -3.1285  -3.0450
    -2.9473  -2.8832  -2.8720  -2.8363  -2.7990  -2.7588  -2.6265  -2.6078

          k = 0.0000 0.0000 0.9332 ( 31497 PWs)   bands (ev):

   -20.9507 -20.9507 -20.9145 -20.8226 -20.6963 -20.6963 -20.4399 -20.4399
   -20.3568 -20.2827 -20.2827 -20.2772  -8.6908  -8.6908  -8.6331  -8.5198
    -8.5198  -8.5135  -8.1980  -8.1197  -8.1197  -7.8853  -7.8853  -7.8600
    -6.3484  -6.3484  -6.2677  -5.9416  -5.5757  -5.5757  -4.7454  -4.7454
    -4.7261  -4.3859  -4.3859  -4.2747  -3.1992  -3.1992  -3.0971  -3.0588
    -2.9322  -2.9322  -2.8925  -2.8429  -2.8429  -2.7016  -2.7016  -2.5589

          k = 0.4494 0.2595 0.0000 ( 31508 PWs)   bands (ev):

   -21.0574 -20.9216 -20.9192 -20.7435 -20.6435 -20.6219 -20.5278 -20.5081
   -20.3959 -20.3080 -20.2741 -20.1838  -8.7294  -8.6790  -8.6431  -8.5489
    -8.5079  -8.4470  -8.2643  -8.1511  -8.0844  -7.9275  -7.9053  -7.8742
    -6.5738  -6.2029  -6.1587  -5.9242  -5.5760  -5.3245  -4.9693  -4.9398
    -4.6710  -4.4607  -4.3504  -4.0475  -3.1519  -3.1464  -3.1252  -3.0494
    -2.9608  -2.9019  -2.8540  -2.8323  -2.7789  -2.7368  -2.6768  -2.5887

          k = 0.2996 0.1730 0.3111 ( 31488 PWs)   bands (ev):

   -21.0817 -20.8785 -20.8098 -20.7865 -20.7026 -20.6668 -20.5093 -20.4925
   -20.4158 -20.3340 -20.2762 -20.1564  -8.7307  -8.6629  -8.6175  -8.5645
    -8.5388  -8.4344  -8.1916  -8.0794  -8.0166  -7.9994  -7.9121  -7.9108
    -6.6837  -6.1310  -6.0264  -5.8270  -5.7212  -5.3289  -5.0765  -4.9256
    -4.8076  -4.4329  -4.3339  -3.9651  -3.2621  -3.1867  -3.1322  -3.0390
    -2.9739  -2.9306  -2.8713  -2.8294  -2.7639  -2.7189  -2.6537  -2.6140

          k = 0.4494-0.2595-0.9332 ( 31477 PWs)   bands (ev):

   -20.9774 -20.9716 -20.8619 -20.8042 -20.6992 -20.6431 -20.5376 -20.4733
   -20.3518 -20.3240 -20.2728 -20.1929  -8.7048  -8.6831  -8.6398  -8.5614
    -8.5241  -8.4050  -8.2363  -8.1007  -8.0234  -8.0010  -7.9108  -7.8979
    -6.4117  -6.2998  -6.0465  -5.9872  -5.7050  -5.3436  -5.1201  -4.8703
    -4.5693  -4.4614  -4.3611  -4.0261  -3.2675  -3.1969  -3.1632  -3.0443
    -3.0048  -2.9649  -2.8323  -2.7973  -2.7855  -2.7307  -2.6550  -2.5776

          k = 0.2996-0.3460-0.6221 ( 31498 PWs)   bands (ev):

   -20.9557 -20.9142 -20.8501 -20.8375 -20.7319 -20.7202 -20.4801 -20.4635
   -20.3491 -20.3348 -20.2703 -20.2079  -8.7092  -8.6374  -8.6147  -8.5858
    -8.5644  -8.4113  -8.1242  -8.1049  -7.9975  -7.9883  -7.9215  -7.9168
    -6.3642  -6.2860  -6.0712  -6.0341  -5.6250  -5.5930  -4.9466  -4.8864
    -4.5728  -4.5316  -4.3296  -4.0481  -3.3482  -3.2109  -3.1661  -3.0705
    -3.0337  -2.9246  -2.8705  -2.8308  -2.8157  -2.6860  -2.6640  -2.5646

          k = 0.0000 0.0000-1.8663 ( 31500 PWs)   bands (ev):

   -20.9265 -20.8755 -20.8481 -20.8481 -20.7784 -20.7784 -20.4237 -20.4237
   -20.3767 -20.3767 -20.2670 -20.1920  -8.7206  -8.6105  -8.6105  -8.5856
    -8.5856  -8.3781  -8.1443  -8.1283  -7.9696  -7.9696  -7.9538  -7.9538
    -6.2661  -6.2430  -5.9017  -5.9017  -5.8818  -5.8818  -4.7709  -4.7709
    -4.6464  -4.6464  -4.2988  -4.0002  -3.3681  -3.2050  -3.2050  -3.0995
    -3.0995  -2.8841  -2.8735  -2.7842  -2.7842  -2.6977  -2.6977  -2.5346

          k = 0.2996-0.3460 0.3111 ( 31515 PWs)   bands (ev):

   -21.0421 -20.9192 -20.8269 -20.7966 -20.7228 -20.6734 -20.4964 -20.4326
   -20.4005 -20.3249 -20.2822 -20.1925  -8.7209  -8.6661  -8.6101  -8.5871
    -8.5092  -8.4642  -8.1932  -8.1308  -8.0580  -7.9285  -7.9019  -7.8775
    -6.5787  -6.2217  -6.1205  -5.8620  -5.7063  -5.3799  -5.0617  -4.7606
    -4.6473  -4.5162  -4.3769  -4.0573  -3.2498  -3.1653  -3.1317  -3.0345
    -2.9576  -2.9256  -2.8774  -2.8569  -2.8155  -2.7088  -2.6582  -2.5881

     highest occupied level (ev):    -2.5346

!    total energy              =    -413.93538584 Ry
     estimated scf accuracy    <       0.00000004 Ry

     The total energy is the sum of the following terms:
     one-electron contribution =    -305.07235797 Ry
     hartree contribution      =     185.73237898 Ry
     xc contribution           =    -101.53505217 Ry
     ewald contribution        =    -193.06035469 Ry

     convergence has been achieved in   7 iterations

     Forces acting on atoms (cartesian axes, Ry/au):

     atom    1 type  2   force =    -0.00588036    0.00320817    0.00468367
     atom    2 type  2   force =     0.00588036   -0.00320817   -0.00468367
     atom    3 type  2   force =     0.00016182   -0.00669663    0.00468367
     atom    4 type  2   force =    -0.00016182    0.00669663   -0.00468367
     atom    5 type  2   force =     0.00571854    0.00348845    0.00468367
     atom    6 type  2   force =    -0.00571854   -0.00348845   -0.00468367
     atom    7 type  2   force =     0.00380939   -0.00700998    0.00174194
     atom    8 type  2   force =    -0.00380939    0.00700998   -0.00174194
     atom    9 type  2   force =     0.00416613    0.00680402    0.00174194
     atom   10 type  2   force =    -0.00416613   -0.00680402   -0.00174194
     atom   11 type  2   force =    -0.00797551    0.00020597    0.00174194
     atom   12 type  2   force =     0.00797551   -0.00020597   -0.00174194
     atom   13 type  1   force =    -0.00872935    0.00472466   -0.02484334
     atom   14 type  1   force =     0.00872935   -0.00472466    0.02484334
     atom   15 type  1   force =     0.00027300   -0.00992217   -0.02484334
     atom   16 type  1   force =    -0.00027300    0.00992217    0.02484334
     atom   17 type  1   force =     0.00845635    0.00519751   -0.02484334
     atom   18 type  1   force =    -0.00845635   -0.00519751    0.02484334
     atom   19 type  1   force =     0.01473642   -0.01190636    0.01443809
     atom   20 type  1   force =    -0.01473642    0.01190636   -0.01443809
     atom   21 type  1   force =     0.00294300    0.01871529    0.01443809
     atom   22 type  1   force =    -0.00294300   -0.01871529   -0.01443809
     atom   23 type  1   force =    -0.01767942   -0.00680894    0.01443809
     atom   24 type  1   force =     0.01767942    0.00680894   -0.01443809
     atom   25 type  1   force =     0.00414824    0.01166567    0.00379865
     atom   26 type  1   force =    -0.00414824   -0.01166567   -0.00379865
     atom   27 type  1   force =    -0.01217688   -0.00224035    0.00379865
     atom   28 type  1   force =     0.01217688    0.00224035   -0.00379865
     atom   29 type  1   force =     0.00802864   -0.00942531    0.00379865
     atom   30 type  1   force =    -0.00802864    0.00942531   -0.00379865
     atom   31 type  1   force =    -0.00028102   -0.00988645   -0.00178916
     atom   32 type  1   force =     0.00028102    0.00988645    0.00178916
     atom   33 type  1   force =     0.00870243    0.00469986   -0.00178916
     atom   34 type  1   force =    -0.00870243   -0.00469986    0.00178916
     atom   35 type  1   force =    -0.00842141    0.00518659   -0.00178916
     atom   36 type  1   force =     0.00842141   -0.00518659    0.00178916

     Total force =     0.100559     Total SCF correction =     0.000190


     Computing stress (Cartesian axis) and pressure

          total   stress  (Ry/bohr**3)                   (kbar)     P=       -0.76
  -0.00003810   0.00000000  -0.00000000           -5.60        0.00       -0.00
  -0.00000000  -0.00003810  -0.00000000           -0.00       -5.60       -0.00
   0.00000000  -0.00000000   0.00006060            0.00       -0.00        8.91

     Energy error            =      2.5E-02 Ry
     Gradient error          =      2.5E-02 Ry/Bohr

     number of scf cycles    =   3
     number of bfgs steps    =   2

     energy             old  =    -413.9108634230 Ry
     energy             new  =    -413.9353858438 Ry

     CASE: energy            _new < energy            _old

     new trust radius        =       0.0557931455 bohr
     new conv_thr            =       0.0000001000 Ry


ATOMIC_POSITIONS (crystal)
O                0.2733564778        0.0352418543        0.8600221157
O                0.7266435222        0.9647581567        0.1399778543
O                0.8600221157        0.2733564778        0.0352418543
O                0.1399778543        0.7266435222        0.9647581567
O                0.0352418543        0.8600221157        0.2733564778
O                0.9647581567        0.1399778543        0.7266435222
O                0.4717900859        0.7480940609        0.3305215037
O                0.5282099141        0.2519059391        0.6694784663
O                0.3305215037        0.4717900859        0.7480940609
O                0.6694784663        0.5282099141        0.2519059391
O                0.7480940609        0.3305215037        0.4717900859
O                0.2519059391        0.6694784663        0.5282099141
H                0.1534116138        0.0557437728        0.7995632082
H                0.8465883722        0.9442562192        0.2004367918
H                0.7995632082        0.1534116138        0.0557437728
H                0.2004367918        0.8465883722        0.9442562192
H                0.0557437728        0.7995632082        0.1534116138
H                0.9442562192        0.2004367918        0.8465883722
H                0.4221876357        0.2036833313        0.9995616624
H                0.5778123643        0.7963166837        0.0004383166
H                0.9995616624        0.4221876357        0.2036833313
H                0.0004383166        0.5778123643        0.7963166837
H                0.2036833313        0.9995616624        0.4221876357
H                0.7963166837        0.0004383166        0.5778123643
H                0.7207497001        0.4033086439        0.3980920544
H                0.2792502999        0.5966913261        0.6019079756
H                0.3980920544        0.7207497001        0.4033086439
H                0.6019079756        0.2792502999        0.5966913261
H                0.4033086439        0.3980920544        0.7207497001
H                0.5966913261        0.6019079756        0.2792502999
H                0.7418462548        0.2044345217        0.3654782777
H                0.2581537452        0.7955654633        0.6345217223
H                0.3654782777        0.7418462548        0.2044345217
H                0.6345217223        0.2581537452        0.7955654633
H                0.2044345217        0.3654782777        0.7418462548
H                0.7955654633        0.6345217223        0.2581537452



     Writing config-only to output data dir ./iceII/iceII.save/ :
     XML data file
     NEW-OLD atomic charge density approx. for the potential

     negative rho (up, down):  3.945E-07 0.000E+00

     total cpu time spent up to now is       35.7 secs

     per-process dynamical memory:    28.6 Mb

     Self-consistent Calculation

     iteration #  1     ecut=    90.00 Ry     beta= 0.70
     Davidson diagonalization with overlap
     ethr =  1.00E-06,  avg # of iterations =  6.5

     negative rho (up, down):  2.401E-07 0.000E+00

     total cpu time spent up to now is       37.3 secs

     total energy              =    -413.94856793 Ry
     estimated scf accuracy    <       0.00107499 Ry

     iteration #  2     ecut=    90.00 Ry     beta= 0.70
     Davidson diagonalization with overlap
     ethr =  1.12E-06,  avg # of iterations =  2.4

     negative rho (up, down):  2.666E-07 0.000E+00

     total cpu time spent up to now is       38.2 secs

     total energy              =    -413.94877212 Ry
     estimated scf accuracy    <       0.00016663 Ry

     iteration #  3     ecut=    90.00 Ry     beta= 0.70
     Davidson diagonalization with overlap
     ethr =  1.74E-07,  avg # of iterations =  2.4

     negative rho (up, down):  2.901E-07 0.000E+00

     total cpu time spent up to now is       39.0 secs

     total energy              =    -413.94880904 Ry
     estimated scf accuracy    <       0.00001341 Ry

     iteration #  4     ecut=    90.00 Ry     beta= 0.70
     Davidson diagonalization with overlap
     ethr =  1.40E-08,  avg # of iterations =  2.0

     negative rho (up, down):  2.909E-07 0.000E+00

     total cpu time spent up to now is       39.8 secs

     total energy              =    -413.94881015 Ry
     estimated scf accuracy    <       0.00000133 Ry

     iteration #  5     ecut=    90.00 Ry     beta= 0.70
     Davidson diagonalization with overlap
     ethr =  1.38E-09,  avg # of iterations =  2.9

     negative rho (up, down):  2.906E-07 0.000E+00

     total cpu time spent up to now is       40.8 secs

     End of self-consistent calculation

          k = 0.0000 0.0000 0.0000 ( 31483 PWs)   bands (ev):

   -21.1127 -20.7419 -20.7419 -20.5241 -20.5241 -20.5138 -20.5138 -20.4989
   -20.4847 -20.2214 -20.2214 -19.9860  -8.7667  -8.6084  -8.5894  -8.5894
    -8.5460  -8.5460  -8.1926  -8.1926  -8.1690  -8.1428  -8.1428  -8.0233
    -6.9045  -5.8348  -5.8348  -5.4135  -5.4135  -5.2123  -5.2123  -4.9868
    -4.9218  -4.3219  -4.3219  -3.7016  -3.1428  -3.1428  -3.0876  -2.9230
    -2.9230  -2.8938  -2.7907  -2.7357  -2.7290  -2.7290  -2.6863  -2.6863

          k =-0.1498-0.0865 0.3111 ( 31495 PWs)   bands (ev):

   -21.0519 -20.7704 -20.7413 -20.6445 -20.6172 -20.5719 -20.4528 -20.4103
   -20.3729 -20.2287 -20.1978 -20.0304  -8.7319  -8.6466  -8.6072  -8.5845
    -8.5374  -8.4866  -8.2350  -8.2060  -8.1621  -8.0979  -8.0750  -8.0556
    -6.7253  -6.0084  -5.8791  -5.6474  -5.5174  -5.2096  -5.0198  -4.9312
    -4.7597  -4.3218  -4.2540  -3.8359  -3.2238  -3.1705  -3.0881  -2.9723
    -2.9596  -2.9078  -2.8799  -2.7735  -2.7466  -2.6869  -2.6642  -2.6303

          k = 0.2996 0.1730-0.6221 ( 31518 PWs)   bands (ev):

   -20.9231 -20.8616 -20.7659 -20.7026 -20.6490 -20.6118 -20.4204 -20.3710
   -20.2879 -20.2185 -20.1702 -20.1133  -8.6762  -8.6697  -8.6156  -8.5955
    -8.5331  -8.4661  -8.2300  -8.2110  -8.1501  -8.1280  -8.0372  -8.0237
    -6.3521  -6.2914  -5.9275  -5.9113  -5.4507  -5.4166  -4.8841  -4.8114
    -4.4430  -4.4038  -4.2115  -4.0556  -3.2950  -3.1865  -3.0942  -3.0162
    -2.9821  -2.9674  -2.8658  -2.8439  -2.7801  -2.6762  -2.6190  -2.5894

          k =-0.1498 0.0865 0.6221 ( 31523 PWs)   bands (ev):

   -20.9366 -20.8137 -20.7985 -20.6975 -20.6612 -20.6174 -20.4082 -20.3507
   -20.3072 -20.2104 -20.1904 -20.1036  -8.6815  -8.6498  -8.6451  -8.5779
    -8.5351  -8.4643  -8.2260  -8.2169  -8.1795  -8.0757  -8.0537  -8.0308
    -6.4045  -6.1537  -6.1190  -5.7194  -5.5731  -5.4105  -4.8894  -4.6782
    -4.6078  -4.3050  -4.2411  -4.0620  -3.2792  -3.2115  -3.0871  -3.0081
    -2.9885  -2.9350  -2.9089  -2.8139  -2.7916  -2.6756  -2.6329  -2.5786

          k = 0.2996 0.3460-0.3111 ( 31515 PWs)   bands (ev):

   -20.9726 -20.8419 -20.7841 -20.6911 -20.6307 -20.5887 -20.4202 -20.3592
   -20.2872 -20.2523 -20.1718 -20.0900  -8.7011  -8.6771  -8.5965  -8.5748
    -8.5438  -8.4625  -8.2999  -8.2758  -8.2038  -8.0613  -8.0389  -8.0116
    -6.4702  -6.1429  -5.9482  -5.7795  -5.7092  -5.2395  -4.8117  -4.7184
    -4.6513  -4.3690  -4.2364  -3.9959  -3.2204  -3.1690  -3.0997  -3.0278
    -2.9419  -2.8913  -2.8659  -2.8401  -2.7843  -2.7186  -2.6273  -2.5626

          k = 0.1498 0.2595 0.0000 ( 31514 PWs)   bands (ev):

   -21.0680 -20.8033 -20.7579 -20.6195 -20.5885 -20.5181 -20.4818 -20.4140
   -20.3813 -20.2319 -20.1986 -20.0215  -8.7472  -8.6475  -8.6067  -8.5771
    -8.5149  -8.5078  -8.3144  -8.2578  -8.1686  -8.1111  -8.0683  -8.0160
    -6.7424  -5.9141  -5.8722  -5.6835  -5.5986  -5.1328  -4.9802  -4.8311
    -4.8113  -4.3654  -4.3056  -3.7827  -3.1430  -3.1293  -3.1077  -2.9873
    -2.9239  -2.8891  -2.8119  -2.7911  -2.7693  -2.7296  -2.6325  -2.6215

          k = 0.2996-0.1730-1.2442 ( 31484 PWs)   bands (ev):

   -20.9560 -20.9392 -20.7716 -20.6593 -20.5950 -20.5320 -20.4462 -20.3935
   -20.3118 -20.2520 -20.1315 -20.0957  -8.7121  -8.6833  -8.6089  -8.5809
    -8.4856  -8.4711  -8.3854  -8.3140  -8.1836  -8.0996  -8.0321  -8.0065
    -6.3458  -6.3422  -5.8874  -5.8595  -5.4975  -5.2379  -4.8346  -4.7534
    -4.5848  -4.5071  -4.1423  -3.9827  -3.1512  -3.1170  -3.1124  -3.0331
    -2.9276  -2.8543  -2.8526  -2.8309  -2.7836  -2.7386  -2.6022  -2.5828

          k = 0.0000 0.0000 0.9332 ( 31497 PWs)   bands (ev):

   -20.8771 -20.8771 -20.8632 -20.7151 -20.6148 -20.6148 -20.3535 -20.3535
   -20.2948 -20.1844 -20.1844 -20.1572  -8.6806  -8.6806  -8.6241  -8.5339
    -8.5240  -8.5240  -8.3255  -8.2545  -8.2545  -8.0190  -8.0190  -7.9972
    -6.2451  -6.2451  -6.1001  -5.9294  -5.4828  -5.4828  -4.6237  -4.6237
    -4.5304  -4.3075  -4.3075  -4.2253  -3.1783  -3.1783  -3.0805  -3.0509
    -2.9088  -2.9088  -2.8709  -2.8351  -2.8351  -2.6759  -2.6759  -2.5398

          k = 0.4494 0.2595 0.0000 ( 31508 PWs)   bands (ev):

   -20.9856 -20.8551 -20.8467 -20.6494 -20.5711 -20.5349 -20.4431 -20.4138
   -20.3214 -20.2091 -20.1714 -20.0822  -8.7139  -8.6681  -8.6374  -8.5502
    -8.5187  -8.4543  -8.3949  -8.2799  -8.2269  -8.0647  -8.0362  -8.0171
    -6.4678  -6.0796  -6.0557  -5.8616  -5.4637  -5.2038  -4.8762  -4.8441
    -4.5392  -4.3680  -4.2621  -3.9541  -3.1346  -3.1303  -3.1113  -3.0368
    -2.9420  -2.8811  -2.8372  -2.8185  -2.7590  -2.7174  -2.6556  -2.5622

          k = 0.2996 0.1730 0.3111 ( 31488 PWs)   bands (ev):

   -21.0109 -20.8111 -20.7492 -20.6955 -20.6103 -20.5777 -20.4326 -20.4112
   -20.3168 -20.2453 -20.1740 -20.0552  -8.7161  -8.6595  -8.6180  -8.5599
    -8.5502  -8.4444  -8.3125  -8.1999  -8.1543  -8.1437  -8.0562  -8.0417
    -6.5831  -6.0287  -5.9403  -5.6836  -5.6576  -5.2367  -4.9238  -4.8236
    -4.7286  -4.3201  -4.2423  -3.8768  -3.2384  -3.1679  -3.1154  -3.0204
    -2.9592  -2.9119  -2.8545  -2.8110  -2.7535  -2.7020  -2.6379  -2.5831

          k = 0.4494-0.2595-0.9332 ( 31477 PWs)   bands (ev):

   -20.9113 -20.8988 -20.7945 -20.7128 -20.6135 -20.5589 -20.4521 -20.3893
   -20.2523 -20.2451 -20.1767 -20.0841  -8.6897  -8.6729  -8.6339  -8.5598
    -8.5274  -8.4068  -8.3659  -8.2396  -8.1699  -8.1348  -8.0510  -8.0329
    -6.3152  -6.1979  -5.9662  -5.8873  -5.5800  -5.2155  -5.0178  -4.7868
    -4.4816  -4.3314  -4.2691  -3.9396  -3.2424  -3.1761  -3.1427  -3.0265
    -2.9850  -2.9515  -2.8197  -2.7831  -2.7740  -2.7164  -2.6367  -2.5456

          k = 0.2996-0.3460-0.6221 ( 31498 PWs)   bands (ev):

   -20.8988 -20.8323 -20.7851 -20.7499 -20.6451 -20.6276 -20.4035 -20.3778
   -20.2556 -20.2327 -20.1931 -20.0933  -8.6952  -8.6316  -8.6088  -8.5903
    -8.5675  -8.4139  -8.2519  -8.2410  -8.1374  -8.1222  -8.0589  -8.0525
    -6.2446  -6.2209  -5.9703  -5.9383  -5.5258  -5.4902  -4.8123  -4.7625
    -4.4819  -4.4547  -4.1901  -3.9938  -3.3121  -3.1904  -3.1463  -3.0507
    -3.0122  -2.9172  -2.8523  -2.8185  -2.8020  -2.6736  -2.6481  -2.5350

          k = 0.0000 0.0000-1.8663 ( 31500 PWs)   bands (ev):

   -20.8716 -20.7906 -20.7906 -20.7722 -20.6793 -20.6793 -20.3532 -20.3532
   -20.2649 -20.2649 -20.1982 -20.0765  -8.7013  -8.6041  -8.6041  -8.5844
    -8.5844  -8.3745  -8.2731  -8.2692  -8.1131  -8.1131  -8.0916  -8.0916
    -6.2236  -6.1236  -5.8429  -5.8429  -5.7147  -5.7147  -4.6180  -4.6180
    -4.6092  -4.6092  -4.1471  -3.9473  -3.3221  -3.1837  -3.1837  -3.0803
    -3.0803  -2.8830  -2.8525  -2.7745  -2.7745  -2.6831  -2.6831  -2.5020

          k = 0.2996-0.3460 0.3111 ( 31515 PWs)   bands (ev):

   -20.9713 -20.8531 -20.7652 -20.6984 -20.6332 -20.5911 -20.4079 -20.3632
   -20.3092 -20.2255 -20.1825 -20.0891  -8.7066  -8.6625  -8.6089  -8.5831
    -8.5216  -8.4729  -8.3199  -8.2590  -8.1986  -8.0585  -8.0413  -8.0142
    -6.4715  -6.1386  -5.9806  -5.7579  -5.6660  -5.2853  -4.9037  -4.6344
    -4.5588  -4.4082  -4.2926  -3.9755  -3.2267  -3.1469  -3.1150  -3.0222
    -2.9380  -2.9025  -2.8640  -2.8360  -2.8064  -2.6943  -2.6284  -2.5680

     highest occupied level (ev):    -2.5020

!    total energy              =    -413.94881048 Ry
     estimated scf accuracy    <       0.00000007 Ry

     The total energy is the sum of the following terms:
     one-electron contribution =    -303.62281794 Ry
     hartree contribution      =     185.07174946 Ry
     xc contribution           =    -101.44548986 Ry
     ewald contribution        =    -193.95225213 Ry

     convergence has been achieved in   5 iterations

     Forces acting on atoms (cartesian axes, Ry/au):

     atom    1 type  2   force =    -0.00317723   -0.00188430   -0.00083912
     atom    2 type  2   force =     0.00317723    0.00188430    0.00083912
     atom    3 type  2   force =     0.00322047   -0.00180941   -0.00083912
     atom    4 type  2   force =    -0.00322047    0.00180941    0.00083912
     atom    5 type  2   force =    -0.00004324    0.00369372   -0.00083912
     atom    6 type  2   force =     0.00004324   -0.00369372    0.00083912
     atom    7 type  2   force =    -0.00138077   -0.00379419   -0.00209500
     atom    8 type  2   force =     0.00138077    0.00379419    0.00209500
     atom    9 type  2   force =     0.00397625    0.00070131   -0.00209500
     atom   10 type  2   force =    -0.00397625   -0.00070131    0.00209500
     atom   11 type  2   force =    -0.00259548    0.00309288   -0.00209500
     atom   12 type  2   force =     0.00259548   -0.00309288    0.00209500
     atom   13 type  1   force =    -0.00536582   -0.00023477   -0.00814604
     atom   14 type  1   force =     0.00536582    0.00023477    0.00814604
     atom   15 type  1   force =     0.00288623   -0.00452955   -0.00814604
     atom   16 type  1   force =    -0.00288623    0.00452955    0.00814604
     atom   17 type  1   force =     0.00247960    0.00476432   -0.00814604
     atom   18 type  1   force =    -0.00247960   -0.00476432    0.00814604
     atom   19 type  1   force =     0.00833855   -0.00109655    0.00419352
     atom   20 type  1   force =    -0.00833855    0.00109655   -0.00419352
     atom   21 type  1   force =    -0.00321963    0.00776967    0.00419352
     atom   22 type  1   force =     0.00321963   -0.00776967   -0.00419352
     atom   23 type  1   force =    -0.00511892   -0.00667312    0.00419352
     atom   24 type  1   force =     0.00511892    0.00667312   -0.00419352
     atom   25 type  1   force =     0.00239575    0.00140493    0.00357572
     atom   26 type  1   force =    -0.00239575   -0.00140493   -0.00357572
     atom   27 type  1   force =    -0.00241458    0.00137232    0.00357572
     atom   28 type  1   force =     0.00241458   -0.00137232   -0.00357572
     atom   29 type  1   force =     0.00001883   -0.00277725    0.00357572
     atom   30 type  1   force =    -0.00001883    0.00277725   -0.00357572
     atom   31 type  1   force =    -0.00351381   -0.00325757    0.00128081
     atom   32 type  1   force =     0.00351381    0.00325757   -0.00128081
     atom   33 type  1   force =     0.00457805   -0.00141426    0.00128081
     atom   34 type  1   force =    -0.00457805    0.00141426   -0.00128081
     atom   35 type  1   force =    -0.00106424    0.00467184    0.00128081
     atom   36 type  1   force =     0.00106424   -0.00467184   -0.00128081

     Total force =     0.039774     Total SCF correction =     0.000325


     Computing stress (Cartesian axis) and pressure

          total   stress  (Ry/bohr**3)                   (kbar)     P=      -10.78
  -0.00010196   0.00000000  -0.00000000          -15.00        0.00       -0.00
  -0.00000000  -0.00010196  -0.00000000           -0.00      -15.00       -0.00
   0.00000000  -0.00000000  -0.00001597            0.00       -0.00       -2.35

     Energy error            =      1.3E-02 Ry
     Gradient error          =      8.3E-03 Ry/Bohr

     number of scf cycles    =   4
     number of bfgs steps    =   3

     energy             old  =    -413.9353858438 Ry
     energy             new  =    -413.9488104786 Ry

     CASE: energy            _new < energy            _old

     new trust radius        =       0.0321260513 bohr
     new conv_thr            =       0.0000000834 Ry


ATOMIC_POSITIONS (crystal)
O                0.2731682076        0.0358889134        0.8607251935
O                0.7268317924        0.9641110976        0.1392747765
O                0.8607251935        0.2731682076        0.0358889134
O                0.1392747765        0.7268317924        0.9641110976
O                0.0358889134        0.8607251935        0.2731682076
O                0.9641110976        0.1392747765        0.7268317924
O                0.4712973552        0.7473960596        0.3304325013
O                0.5287026448        0.2526039404        0.6695674687
O                0.3304325013        0.4712973552        0.7473960596
O                0.6695674687        0.5287026448        0.2526039404
O                0.7473960596        0.3304325013        0.4712973552
O                0.2526039404        0.6695674687        0.5287026448
H                0.1504746775        0.0532472771        0.7975726022
H                0.8495253085        0.9467527149        0.2024273978
H                0.7975726022        0.1504746775        0.0532472771
H                0.2024273978        0.8495253085        0.9467527149
H                0.0532472771        0.7975726022        0.1504746775
H                0.9467527149        0.2024273978        0.8495253085
H                0.4245695747        0.2042993720        1.0001390067
H                0.5754304253        0.7957006430       -0.0001390277
H                1.0001390067        0.4245695747        0.2042993720
H               -0.0001390277        0.5754304253        0.7957006430
H                0.2042993720        1.0001390067        0.4245695747
H                0.7957006430       -0.0001390277        0.5754304253
H                0.7214618654        0.4042611777        0.3985184318
H                0.2785381346        0.5957387923        0.6014815982
H                0.3985184318        0.7214618654        0.4042611777
H                0.6014815982        0.2785381346        0.5957387923
H                0.4042611777        0.3985184318        0.7214618654
H                0.5957387923        0.6014815982        0.2785381346
H                0.7419854842        0.2042707191        0.3663492287
H                0.2580145158        0.7957292659        0.6336507713
H                0.3663492287        0.7419854842        0.2042707191
H                0.6336507713        0.2580145158        0.7957292659
H                0.2042707191        0.3663492287        0.7419854842
H                0.7957292659        0.6336507713        0.2580145158



     Writing config-only to output data dir ./iceII/iceII.save/ :
     XML data file
     NEW-OLD atomic charge density approx. for the potential

     negative rho (up, down):  2.976E-07 0.000E+00

     total cpu time spent up to now is       42.0 secs

     per-process dynamical memory:    28.6 Mb

     Self-consistent Calculation

     iteration #  1     ecut=    90.00 Ry     beta= 0.70
     Davidson diagonalization with overlap
     ethr =  1.00E-06,  avg # of iterations =  4.6

     negative rho (up, down):  3.056E-07 0.000E+00

     total cpu time spent up to now is       43.3 secs

     total energy              =    -413.95127094 Ry
     estimated scf accuracy    <       0.00033125 Ry

     iteration #  2     ecut=    90.00 Ry     beta= 0.70
     Davidson diagonalization with overlap
     ethr =  3.45E-07,  avg # of iterations =  2.0

     negative rho (up, down):  3.192E-07 0.000E+00

     total cpu time spent up to now is       44.2 secs

     total energy              =    -413.95133439 Ry
     estimated scf accuracy    <       0.00002309 Ry

     iteration #  3     ecut=    90.00 Ry     beta= 0.70
     Davidson diagonalization with overlap
     ethr =  2.41E-08,  avg # of iterations =  2.0

     negative rho (up, down):  3.229E-07 0.000E+00

     total cpu time spent up to now is       45.0 secs

     total energy              =    -413.95133873 Ry
     estimated scf accuracy    <       0.00000226 Ry

     iteration #  4     ecut=    90.00 Ry     beta= 0.70
     Davidson diagonalization with overlap
     ethr =  2.35E-09,  avg # of iterations =  2.8

     negative rho (up, down):  3.235E-07 0.000E+00

     total cpu time spent up to now is       45.9 secs

     total energy              =    -413.95133930 Ry
     estimated scf accuracy    <       0.00000022 Ry

     iteration #  5     ecut=    90.00 Ry     beta= 0.70
     Davidson diagonalization with overlap
     ethr =  2.34E-10,  avg # of iterations =  2.9

     negative rho (up, down):  3.234E-07 0.000E+00

     total cpu time spent up to now is       46.8 secs

     End of self-consistent calculation

          k = 0.0000 0.0000 0.0000 ( 31483 PWs)   bands (ev):

   -21.0879 -20.7311 -20.7311 -20.5066 -20.5066 -20.4537 -20.4510 -20.4480
   -20.4480 -20.1545 -20.1545 -19.9291  -8.7872  -8.6512  -8.6223  -8.6223
    -8.5770  -8.5770  -8.2373  -8.2373  -8.2095  -8.1882  -8.1882  -8.0760
    -6.8480  -5.7788  -5.7788  -5.3725  -5.3725  -5.1472  -5.1472  -4.9506
    -4.8505  -4.2642  -4.2642  -3.6484  -3.1416  -3.1416  -3.0789  -2.9162
    -2.9162  -2.8860  -2.7833  -2.7240  -2.7092  -2.7092  -2.6799  -2.6799

[...]
H                0.2040901334        0.8553014362        0.9626648422
H                0.0373351498        0.7959098666        0.1446985498
H                0.9626648422        0.2040901334        0.8553014362
H                0.4186086054        0.1858020195        0.9861139736
H                0.5813913946        0.8141979955        0.0138860054
H                0.9861139736        0.4186086054        0.1858020195
H                0.0138860054        0.5813913946        0.8141979955
H                0.1858020195        0.9861139736        0.4186086054
H                0.8141979955        0.0138860054        0.5813913946
H                0.7290672691        0.4122994561        0.4126799378
H                0.2709327309        0.5877005139        0.5873200922
H                0.4126799378        0.7290672691        0.4122994561
H                0.5873200922        0.2709327309        0.5877005139
H                0.4122994561        0.4126799378        0.7290672691
H                0.5877005139        0.5873200922        0.2709327309
H                0.7463250891        0.2117665808        0.3811677096
H                0.2536749109        0.7882334042        0.6188322904
H                0.3811677096        0.7463250891        0.2117665808
H                0.6188322904        0.2536749109        0.7882334042
H                0.2117665808        0.3811677096        0.7463250891
H                0.7882334042        0.6188322904        0.2536749109



     Writing config-only to output data dir ./iceII/iceII.save/ :
     XML data file
     NEW-OLD atomic charge density approx. for the potential

     negative rho (up, down):  2.302E-07 0.000E+00

     total cpu time spent up to now is      362.4 secs

     per-process dynamical memory:    33.4 Mb

     Self-consistent Calculation

     iteration #  1     ecut=    90.00 Ry     beta= 0.70
     Davidson diagonalization with overlap
     ethr =  1.00E-06,  avg # of iterations =  2.0

     Threshold (ethr) on eigenvalues was too large:
     Diagonalizing with lowered threshold

     Davidson diagonalization with overlap
     ethr =  9.99E-11,  avg # of iterations =  4.9

     negative rho (up, down):  2.285E-07 0.000E+00

     total cpu time spent up to now is      364.4 secs

     total energy              =    -413.95977459 Ry
     estimated scf accuracy    <       0.00000018 Ry

     iteration #  2     ecut=    90.00 Ry     beta= 0.70
     Davidson diagonalization with overlap
     ethr =  1.89E-10,  avg # of iterations =  2.0

     negative rho (up, down):  2.282E-07 0.000E+00

     total cpu time spent up to now is      365.2 secs

     total energy              =    -413.95977462 Ry
     estimated scf accuracy    <       0.00000001 Ry

     iteration #  3     ecut=    90.00 Ry     beta= 0.70
     Davidson diagonalization with overlap
     ethr =  1.48E-11,  avg # of iterations =  2.1

     negative rho (up, down):  2.280E-07 0.000E+00

     total cpu time spent up to now is      366.1 secs

     total energy              =    -413.95977462 Ry
     estimated scf accuracy    <          1.9E-09 Ry

     iteration #  4     ecut=    90.00 Ry     beta= 0.70
     Davidson diagonalization with overlap
     ethr =  2.01E-12,  avg # of iterations =  2.1

     negative rho (up, down):  2.279E-07 0.000E+00

     total cpu time spent up to now is      366.9 secs

     End of self-consistent calculation

          k = 0.0000 0.0000 0.0000 ( 31483 PWs)   bands (ev):

   -21.0825 -20.7168 -20.7168 -20.5028 -20.4878 -20.4878 -20.4675 -20.4675
   -20.4275 -20.1776 -20.1776 -19.9168  -8.6736  -8.5632  -8.5089  -8.5089
    -8.4839  -8.4839  -8.2012  -8.2012  -8.1562  -8.1562  -8.1388  -8.1008
    -6.8432  -5.8412  -5.8412  -5.3924  -5.3924  -5.1236  -5.1082  -5.1082
    -4.8512  -4.2817  -4.2817  -3.5865  -3.1172  -3.1172  -3.0231  -2.9219
    -2.9219  -2.8749  -2.8213  -2.7649  -2.7649  -2.7557  -2.7078  -2.7078

          k =-0.1498-0.0865 0.3111 ( 31495 PWs)   bands (ev):

   -21.0233 -20.7408 -20.7165 -20.6102 -20.5899 -20.5374 -20.4217 -20.3667
   -20.3272 -20.1848 -20.1531 -19.9627  -8.6452  -8.5719  -8.5427  -8.5248
    -8.4766  -8.4327  -8.2347  -8.2063  -8.1660  -8.1174  -8.0900  -8.0784
    -6.6781  -5.9984  -5.8663  -5.6251  -5.4957  -5.2606  -4.9281  -4.9017
    -4.6867  -4.2918  -4.2221  -3.7267  -3.1853  -3.1351  -3.0386  -2.9802
    -2.9680  -2.9153  -2.8693  -2.7820  -2.7721  -2.7315  -2.6834  -2.6799

          k = 0.2996 0.1730-0.6221 ( 31518 PWs)   bands (ev):

   -20.8996 -20.8332 -20.7351 -20.6593 -20.6282 -20.5781 -20.3877 -20.3263
   -20.2575 -20.1702 -20.1188 -20.0458  -8.5987  -8.5894  -8.5546  -8.5392
    -8.4826  -8.4120  -8.2264  -8.2073  -8.1738  -8.1324  -8.0443  -8.0312
    -6.3258  -6.2659  -5.9222  -5.8598  -5.4565  -5.4455  -4.7916  -4.7745
    -4.3790  -4.3566  -4.1799  -3.9748  -3.2482  -3.1497  -3.0511  -3.0459
    -2.9956  -2.9200  -2.8966  -2.8465  -2.7808  -2.7252  -2.6557  -2.6432

          k =-0.1498 0.0865 0.6221 ( 31523 PWs)   bands (ev):

   -20.9136 -20.7795 -20.7688 -20.6715 -20.6283 -20.5819 -20.3754 -20.3139
   -20.2648 -20.1638 -20.1426 -20.0356  -8.5998  -8.5746  -8.5719  -8.5434
    -8.4715  -8.4124  -8.2242  -8.2113  -8.1961  -8.0920  -8.0601  -8.0348
    -6.3789  -6.1250  -6.0842  -5.7009  -5.6013  -5.4066  -4.8373  -4.6015
    -4.5496  -4.2759  -4.1924  -3.9829  -3.2383  -3.1645  -3.0637  -3.0194
    -2.9652  -2.9555  -2.9085  -2.8197  -2.7944  -2.7220  -2.6747  -2.6277

          k = 0.2996 0.3460-0.3111 ( 31515 PWs)   bands (ev):

   -20.9426 -20.8119 -20.7569 -20.6683 -20.5957 -20.5482 -20.3971 -20.3250
   -20.2424 -20.2000 -20.1197 -20.0264  -8.6139  -8.5964  -8.5337  -8.5172
    -8.4809  -8.4168  -8.2816  -8.2637  -8.2022  -8.0847  -8.0796  -8.0386
    -6.4311  -6.1100  -5.9572  -5.7588  -5.6828  -5.2259  -4.8225  -4.6500
    -4.5911  -4.3031  -4.1961  -3.9167  -3.1853  -3.1227  -3.0713  -3.0061
    -2.9550  -2.8970  -2.8731  -2.8578  -2.7914  -2.7628  -2.6487  -2.6141

          k = 0.1498 0.2595 0.0000 ( 31514 PWs)   bands (ev):

   -21.0372 -20.7747 -20.7293 -20.5987 -20.5486 -20.4866 -20.4468 -20.3900
   -20.3260 -20.1847 -20.1505 -19.9556  -8.6529  -8.5753  -8.5257  -8.5186
    -8.4574  -8.4536  -8.2870  -8.2510  -8.1659  -8.1369  -8.0986  -8.0812
    -6.6905  -5.8965  -5.8838  -5.6518  -5.5748  -5.0842  -4.9841  -4.8391
    -4.7280  -4.3108  -4.2661  -3.6837  -3.1176  -3.1010  -3.0510  -2.9657
    -2.9205  -2.8902  -2.8441  -2.8187  -2.7988  -2.7537  -2.6580  -2.6464

          k = 0.2996-0.1730-1.2442 ( 31484 PWs)   bands (ev):

   -20.9179 -20.9144 -20.7397 -20.6449 -20.5519 -20.5083 -20.4009 -20.3808
   -20.2546 -20.2010 -20.0825 -20.0314  -8.6179  -8.5984  -8.5268  -8.5248
    -8.4385  -8.4275  -8.3446  -8.2956  -8.1803  -8.1310  -8.0864  -8.0583
    -6.3228  -6.2873  -5.8822  -5.8446  -5.4934  -5.1994  -4.8170  -4.7541
    -4.5370  -4.4087  -4.0906  -3.9140  -3.1157  -3.0854  -3.0695  -3.0018
    -2.9157  -2.8864  -2.8856  -2.8354  -2.8261  -2.7565  -2.6301  -2.6067

          k = 0.0000 0.0000 0.9332 ( 31497 PWs)   bands (ev):

   -20.8457 -20.8395 -20.8395 -20.7009 -20.5758 -20.5758 -20.3309 -20.3309
   -20.2401 -20.1337 -20.1337 -20.0876  -8.5977  -8.5977  -8.5589  -8.5047
    -8.4576  -8.4576  -8.3082  -8.2416  -8.2416  -8.0550  -8.0550  -8.0250
    -6.1918  -6.1918  -6.0874  -5.9506  -5.4769  -5.4769  -4.6086  -4.6086
    -4.4166  -4.2607  -4.2607  -4.1450  -3.1377  -3.1377  -3.0598  -3.0190
    -2.9278  -2.9278  -2.8724  -2.8441  -2.8441  -2.7033  -2.7033  -2.5967

          k = 0.4494 0.2595 0.0000 ( 31508 PWs)   bands (ev):

   -20.9538 -20.8282 -20.8097 -20.6374 -20.5347 -20.4957 -20.4190 -20.3849
   -20.2643 -20.1610 -20.1203 -20.0195  -8.6206  -8.5850  -8.5585  -8.4891
    -8.4618  -8.4198  -8.3568  -8.2642  -8.2167  -8.1052  -8.0782  -8.0738
    -6.4261  -6.0487  -6.0127  -5.8781  -5.4594  -5.1793  -4.8872  -4.7803
    -4.4594  -4.3207  -4.2198  -3.8796  -3.1095  -3.0851  -3.0709  -2.9947
    -2.9524  -2.9020  -2.8663  -2.8516  -2.7813  -2.7367  -2.6742  -2.5905

          k = 0.2996 0.1730 0.3111 ( 31488 PWs)   bands (ev):

   -20.9819 -20.7818 -20.7206 -20.6675 -20.5789 -20.5449 -20.3950 -20.3793
   -20.2678 -20.1997 -20.1268 -19.9898  -8.6281  -8.5765  -8.5514  -8.4968
    -8.4914  -8.4012  -8.2910  -8.1994  -8.1737  -8.1487  -8.0977  -8.0620
    -6.5449  -6.0232  -5.9361  -5.6664  -5.6044  -5.2425  -4.8776  -4.7643
    -4.6992  -4.2635  -4.2024  -3.7925  -3.2083  -3.1131  -3.0679  -3.0289
    -2.9729  -2.9117  -2.8533  -2.8288  -2.7819  -2.7406  -2.6804  -2.6051

          k = 0.4494-0.2595-0.9332 ( 31477 PWs)   bands (ev):

   -20.8877 -20.8625 -20.7607 -20.6924 -20.5834 -20.5246 -20.4203 -20.3514
   -20.2038 -20.1974 -20.1286 -20.0209  -8.6012  -8.5852  -8.5568  -8.4987
    -8.4728  -8.3735  -8.3309  -8.2381  -8.1767  -8.1569  -8.0909  -8.0658
    -6.3125  -6.1440  -5.9873  -5.8436  -5.5490  -5.1948  -4.9844  -4.7292
    -4.4635  -4.2416  -4.2192  -3.8919  -3.2141  -3.1185  -3.0920  -3.0344
    -3.0022  -2.9381  -2.8491  -2.8095  -2.7833  -2.7542  -2.6768  -2.5653

          k = 0.2996-0.3460-0.6221 ( 31498 PWs)   bands (ev):

   -20.8763 -20.8027 -20.7548 -20.7188 -20.6106 -20.5934 -20.3711 -20.3432
   -20.2118 -20.1830 -20.1442 -20.0294  -8.6033  -8.5608  -8.5419  -8.5312
    -8.5061  -8.3787  -8.2470  -8.2254  -8.1665  -8.1387  -8.0693  -8.0593
    -6.2574  -6.2023  -5.9441  -5.8927  -5.4991  -5.4615  -4.7857  -4.7265
    -4.4259  -4.3968  -4.1017  -3.9629  -3.2724  -3.1387  -3.0948  -3.0720
    -3.0116  -2.9522  -2.8428  -2.8234  -2.7968  -2.7266  -2.7055  -2.5661

          k = 0.0000 0.0000-1.8663 ( 31500 PWs)   bands (ev):

   -20.8514 -20.7579 -20.7579 -20.7448 -20.6460 -20.6460 -20.3190 -20.3190
   -20.2146 -20.2146 -20.1541 -20.0137  -8.6020  -8.5283  -8.5283  -8.5249
    -8.5249  -8.3589  -8.2668  -8.2389  -8.1484  -8.1484  -8.0968  -8.0968
    -6.2769  -6.1030  -5.8035  -5.8035  -5.6608  -5.6608  -4.6080  -4.6080
    -4.5371  -4.5371  -4.0399  -3.9421  -3.2739  -3.1241  -3.1241  -3.1043
    -3.1043  -2.9293  -2.7960  -2.7738  -2.7738  -2.7592  -2.7592  -2.5267

          k = 0.2996-0.3460 0.3111 ( 31515 PWs)   bands (ev):

   -20.9415 -20.8225 -20.7369 -20.6798 -20.5958 -20.5490 -20.3906 -20.3250
   -20.2634 -20.1695 -20.1350 -20.0251  -8.6209  -8.5811  -8.5389  -8.5207
    -8.4817  -8.4158  -8.2919  -8.2554  -8.1992  -8.0911  -8.0691  -8.0437
    -6.4320  -6.1199  -5.9609  -5.7283  -5.6676  -5.2731  -4.8762  -4.5897
    -4.5076  -4.3518  -4.2404  -3.8979  -3.1920  -3.0986  -3.0833  -3.0082
    -2.9523  -2.9038  -2.8735  -2.8457  -2.8246  -2.7362  -2.6524  -2.6146

     highest occupied level (ev):    -2.5267

!    total energy              =    -413.95977462 Ry
     estimated scf accuracy    <          8.3E-11 Ry

     The total energy is the sum of the following terms:
     one-electron contribution =    -301.29779262 Ry
     hartree contribution      =     183.97271098 Ry
     xc contribution           =    -101.41158314 Ry
     ewald contribution        =    -195.22310985 Ry

     convergence has been achieved in   4 iterations

     Forces acting on atoms (cartesian axes, Ry/au):

     atom    1 type  2   force =    -0.00004669   -0.00005282    0.00012009
     atom    2 type  2   force =     0.00004669    0.00005282   -0.00012009
     atom    3 type  2   force =     0.00006909   -0.00001402    0.00012009
     atom    4 type  2   force =    -0.00006909    0.00001402   -0.00012009
     atom    5 type  2   force =    -0.00002240    0.00006684    0.00012009
     atom    6 type  2   force =     0.00002240   -0.00006684   -0.00012009
     atom    7 type  2   force =     0.00005903   -0.00004755   -0.00002596
     atom    8 type  2   force =    -0.00005903    0.00004755    0.00002596
     atom    9 type  2   force =     0.00001167    0.00007490   -0.00002596
     atom   10 type  2   force =    -0.00001167   -0.00007490    0.00002596
     atom   11 type  2   force =    -0.00007070   -0.00002734   -0.00002596
     atom   12 type  2   force =     0.00007070    0.00002734    0.00002596
     atom   13 type  1   force =    -0.00004737   -0.00004993   -0.00005409
     atom   14 type  1   force =     0.00004737    0.00004993    0.00005409
     atom   15 type  1   force =     0.00006693   -0.00001606   -0.00005409
     atom   16 type  1   force =    -0.00006693    0.00001606    0.00005409
     atom   17 type  1   force =    -0.00001955    0.00006599   -0.00005409
     atom   18 type  1   force =     0.00001955   -0.00006599    0.00005409
     atom   19 type  1   force =    -0.00005175    0.00005646    0.00008075
     atom   20 type  1   force =     0.00005175   -0.00005646   -0.00008075
     atom   21 type  1   force =    -0.00002303   -0.00007305    0.00008075
     atom   22 type  1   force =     0.00002303    0.00007305   -0.00008075
     atom   23 type  1   force =     0.00007477    0.00001658    0.00008075
     atom   24 type  1   force =    -0.00007477   -0.00001658   -0.00008075
     atom   25 type  1   force =    -0.00010339    0.00005161   -0.00007911
     atom   26 type  1   force =     0.00010339   -0.00005161    0.00007911
     atom   27 type  1   force =     0.00000700   -0.00011534   -0.00007911
     atom   28 type  1   force =    -0.00000700    0.00011534    0.00007911
     atom   29 type  1   force =     0.00009639    0.00006373   -0.00007911
     atom   30 type  1   force =    -0.00009639   -0.00006373    0.00007911
     atom   31 type  1   force =     0.00002972   -0.00000156    0.00008349
     atom   32 type  1   force =    -0.00002972    0.00000156   -0.00008349
     atom   33 type  1   force =    -0.00001351    0.00002652    0.00008349
     atom   34 type  1   force =     0.00001351   -0.00002652   -0.00008349
     atom   35 type  1   force =    -0.00001621   -0.00002496    0.00008349
     atom   36 type  1   force =     0.00001621    0.00002496   -0.00008349

     Total force =     0.000663     Total SCF correction =     0.000019


     Computing stress (Cartesian axis) and pressure

          total   stress  (Ry/bohr**3)                   (kbar)     P=      -14.00
  -0.00011119   0.00000000   0.00000000          -16.36        0.00        0.00
  -0.00000000  -0.00011119  -0.00000000           -0.00      -16.36       -0.00
  -0.00000000  -0.00000000  -0.00006316           -0.00       -0.00       -9.29

     Energy error            =      8.8E-07 Ry
     Gradient error          =      1.2E-04 Ry/Bohr

     number of scf cycles    =  50
     number of bfgs steps    =  49

     energy             old  =    -413.9597737436 Ry
     energy             new  =    -413.9597746219 Ry

     CASE: energy            _new < energy            _old

     new trust radius        =       0.0004119951 bohr

     The maximum number of steps has been reached.

     End of BFGS Geometry Optimization

ATOMIC_POSITIONS (crystal)
O                0.2659983998        0.0173970360        0.8556006367
O                0.7340016002        0.9826029750        0.1443993333
O                0.8556006367        0.2659983998        0.0173970360
O                0.1443993333        0.7340016002        0.9826029750
O                0.0173970360        0.8556006367        0.2659983998
O                0.9826029750        0.1443993333        0.7340016002
O                0.4857376374        0.7509814376        0.3372825892
O                0.5142623626        0.2490185624        0.6627173808
O                0.3372825892        0.4857376374        0.7509814376
O                0.6627173808        0.5142623626        0.2490185624
O                0.7509814376        0.3372825892        0.4857376374
O                0.2490185624        0.6627173808        0.5142623626
H                0.1447091381        0.0373359697        0.7959074159
H                0.8552908479        0.9626640223        0.2040925841
H                0.7959074159        0.1447091381        0.0373359697
H                0.2040925841        0.8552908479        0.9626640223
H                0.0373359697        0.7959074159        0.1447091381
H                0.9626640223        0.2040925841        0.8552908479
H                0.4186446621        0.1858347038        0.9861418647
H                0.5813553379        0.8141653112        0.0138581143
H                0.9861418647        0.4186446621        0.1858347038
H                0.0138581143        0.5813553379        0.8141653112
H                0.1858347038        0.9861418647        0.4186446621
H                0.8141653112        0.0138581143        0.5813553379
H                0.7290528010        0.4122970393        0.4126858334
H                0.2709471990        0.5877029307        0.5873141966
H                0.4126858334        0.7290528010        0.4122970393
H                0.5873141966        0.2709471990        0.5877029307
H                0.4122970393        0.4126858334        0.7290528010
H                0.5877029307        0.5873141966        0.2709471990
H                0.7463100657        0.2117552349        0.3811390263
H                0.2536899343        0.7882447501        0.6188609737
H                0.3811390263        0.7463100657        0.2117552349
H                0.6188609737        0.2536899343        0.7882447501
H                0.2117552349        0.3811390263        0.7463100657
H                0.7882447501        0.6188609737        0.2536899343



     Writing config-only to output data dir ./iceII/iceII.save/ :
     XML data file
     NEW-OLD atomic charge density approx. for the potential

     negative rho (up, down):  2.267E-07 0.000E+00

     Writing all to output data dir ./iceII/iceII.save/ :
     XML data file, charge density, pseudopotentials, collected wavefunctions

     init_run     :      1.24s CPU      1.31s WALL (       1 calls)
     electrons    :    302.52s CPU    307.71s WALL (      50 calls)
     update_pot   :      1.45s CPU      1.54s WALL (      50 calls)
     forces       :      6.87s CPU      6.91s WALL (      50 calls)
     stress       :     46.43s CPU     46.48s WALL (      50 calls)

     Called by init_run:
     wfcinit      :      0.36s CPU      0.37s WALL (       1 calls)
     potinit      :      0.04s CPU      0.06s WALL (       1 calls)
     hinit0       :      0.67s CPU      0.68s WALL (       1 calls)

     Called by electrons:
     c_bands      :    255.11s CPU    257.41s WALL (     326 calls)
     sum_band     :     37.09s CPU     37.33s WALL (     326 calls)
     v_of_rho     :      8.04s CPU      8.22s WALL (     346 calls)
     newd         :      1.26s CPU      1.28s WALL (     346 calls)
     mix_rho      :      0.97s CPU      0.98s WALL (     326 calls)

     Called by c_bands:
     init_us_2    :      4.61s CPU      4.79s WALL (    3012 calls)
     cegterg      :    247.17s CPU    248.70s WALL (    1304 calls)

     Called by *egterg:
     cdiaghg      :     18.05s CPU     18.09s WALL (    4652 calls)
     h_psi        :    186.89s CPU    188.25s WALL (    4976 calls)
     s_psi        :      8.17s CPU      8.20s WALL (    4976 calls)
     g_psi        :      0.52s CPU      0.53s WALL (    3668 calls)

     Called by h_psi:
     h_psi:calbec :     13.20s CPU     13.26s WALL (    4976 calls)
     vloc_psi     :    164.07s CPU    165.34s WALL (    4976 calls)
     add_vuspsi   :      8.24s CPU      8.26s WALL (    4976 calls)

     General routines
     calbec       :     19.66s CPU     19.75s WALL (    7280 calls)
     fft          :      5.39s CPU      5.54s WALL (    4287 calls)
     ffts         :      0.39s CPU      0.39s WALL (     326 calls)
     fftw         :    171.24s CPU    172.50s WALL (  443472 calls)
     davcio       :      0.00s CPU      0.00s WALL (       4 calls)

     Parallel routines

     PWSCF        :   6m 2.27s CPU   6m 8.84s WALL


   This run was terminated on:  19:32: 1  31Mar2026            

=------------------------------------------------------------------------------=
   JOB DONE.
=------------------------------------------------------------------------------=
