
     Program PWSCF v.7.3.1 starts on 31Mar2026 at 19:32: 6 

     This program is part of the open-source Quantum ESPRESSO suite
     for quantum simulation of materials; please cite
         "P. Giannozzi et al., J. Phys.:Condens. Matter 21 395502 (2009);
         "P. Giannozzi et al., J. Phys.:Condens. Matter 29 465901 (2017);
         "P. Giannozzi et al., J. Chem. Phys. 152 154105 (2020);
          URL http://www.quantum-espresso.org", 
     in publications or presentations arising from this work. More details at
     http://www.quantum-espresso.org/quote

     Parallel version (MPI), running on   128 processors

     MPI processes distributed on     1 nodes
     498366 MiB available memory on the printing compute node when the environment starts

     Waiting for input...
     Reading input from standard input

     Current dimensions of program PWSCF are:
     Max number of different atomic species (ntypx) = 10
     Max number of k-points (npk) =  40000
     Max angular momentum in pseudopotentials (lmaxx) =  4

     File ./iceII/iceII.update deleted, as requested

     File ./iceII/iceII.bfgs deleted, as requested

     K-points division:     npool     =       4
     R & G space division:  proc/nbgrp/npool/nimage =      32
     Subspace diagonalization in iterative solution of the eigenvalue problem:
     a serial algorithm will be used


     Parallelization info
     --------------------
     sticks:   dense  smooth     PW     G-vecs:    dense   smooth      PW
     Min         186     186     54                 7949     7949    1255
     Max         187     187     55                 7951     7951    1258
     Sum        5977    5977   1751               254413   254413   40201

     Using Slab Decomposition



     bravais-lattice index     =            5
     lattice parameter (alat)  =      15.0549  a.u.
     unit-cell volume          =    2204.5887 (a.u.)^3
     number of atoms/cell      =           36
     number of atomic types    =            2
     number of electrons       =        96.00
     number of Kohn-Sham states=           48
     kinetic-energy cutoff     =      90.0000  Ry
     charge density cutoff     =     360.0000  Ry
     scf convergence threshold =      1.0E-07
     mixing beta               =       0.7000
     number of iterations used =            8  plain     mixing
     energy convergence thresh.=      1.0E-04
     force convergence thresh. =      1.0E-04
     Exchange-correlation=  SLA  PW   PBE  PBE
                           (   1   4   3   4   0   0   0)
     nstep                     =           50


     celldm(1)=  15.054918  celldm(2)=   0.000000  celldm(3)=   0.000000
     celldm(4)=  -0.392337  celldm(5)=   0.000000  celldm(6)=   0.000000

     crystal axes: (cart. coord. in units of alat)
               a(1) = (   0.834367  -0.481722   0.267909 )  
               a(2) = (   0.000000   0.963444   0.267909 )  
               a(3) = (  -0.834367  -0.481722   0.267909 )  

     reciprocal axes: (cart. coord. in units 2 pi/alat)
               b(1) = (  0.599257 -0.345981  1.244203 )  
               b(2) = (  0.000000  0.691962  1.244203 )  
               b(3) = ( -0.599257 -0.345981  1.244203 )  


     PseudoPot. # 1 for H  read from file:
     ./H.pbe-van_ak.UPF
     MD5 check sum: 077eb6d537518a38cb46c6de387227b7
     Pseudo is Ultrasoft, Zval =  1.0
     Generated by new atomic code, or converted to UPF format
     Using radial grid of  615 points,  1 beta functions with: 
                l(1) =   0
     Q(r) pseudized with  8 coefficients,  rinner =    0.800

     PseudoPot. # 2 for O  read from file:
     ./O.pbe-van_ak.UPF
     MD5 check sum: 78c19812648e8988a0fe644b0f25305e
     Pseudo is Ultrasoft, Zval =  6.0
     Generated by new atomic code, or converted to UPF format
     Using radial grid of  737 points,  4 beta functions with: 
                l(1) =   0
                l(2) =   0
                l(3) =   1
                l(4) =   1
     Q(r) pseudized with  8 coefficients,  rinner =    0.800   0.800   0.800


     atomic species   valence    mass     pseudopotential
     H                 1.00     1.00800     H ( 1.00)
     O                 6.00    16.00000     O ( 1.00)

      6 Sym. Ops., with inversion, found



   Cartesian axes

     site n.     atom                  positions (alat units)
         1        O      tau(   1) = (  -0.4847673  -0.5197781   0.3083633  )
         2        O      tau(   2) = (   0.4847673   0.5197782   0.4953638  )
         3        O      tau(   3) = (   0.6925247  -0.1599317   0.3083633  )
         4        O      tau(   4) = (  -0.6925248   0.1599317   0.4953638  )
         5        O      tau(   5) = (  -0.2077574   0.6797099   0.3083633  )
         6        O      tau(   6) = (   0.2077574  -0.6797099   0.4953638  )
         7        O      tau(   7) = (   0.1218176   0.3323883   0.4179381  )
         8        O      tau(   8) = (  -0.1218176  -0.3323883   0.3857890  )
         9        O      tau(   9) = (  -0.3487655  -0.0606970   0.4179381  )
        10        O      tau(  10) = (   0.3487655   0.0606970   0.3857890  )
        11        O      tau(  11) = (   0.2269479  -0.2716913   0.4179381  )
        12        O      tau(  12) = (  -0.2269479   0.2716912   0.3857890  )
        13        H      tau(  13) = (  -0.5381668  -0.4032014   0.2796970  )
        14        H      tau(  14) = (   0.5381668   0.4032014   0.5240301  )
        15        H      tau(  15) = (   0.6182661  -0.2644654   0.2796970  )
        16        H      tau(  16) = (  -0.6182661   0.2644654   0.5240301  )
        17        H      tau(  17) = (  -0.0800993   0.6676668   0.2796970  )
        18        H      tau(  18) = (   0.0800993  -0.6676668   0.5240301  )
        19        H      tau(  19) = (  -0.4872704  -0.4817221   0.4326731  )
        20        H      tau(  20) = (   0.4872704   0.4817221   0.3710540  )
        21        H      tau(  21) = (   0.6608188  -0.1811275   0.4326731  )
        22        H      tau(  22) = (  -0.6608188   0.1811275   0.3710540  )
        23        H      tau(  23) = (  -0.1735484   0.6628496   0.4326731  )
        24        H      tau(  24) = (   0.1735484  -0.6628496   0.3710540  )
        25        H      tau(  25) = (   0.2703349  -0.1502973   0.4058822  )
        26        H      tau(  26) = (  -0.2703350   0.1502973   0.3978449  )
        27        H      tau(  27) = (  -0.0050062   0.3092656   0.4058822  )
        28        H      tau(  28) = (   0.0050062  -0.3092656   0.3978449  )
        29        H      tau(  29) = (  -0.2653287  -0.1589683   0.4058822  )
        30        H      tau(  30) = (   0.2653287   0.1589683   0.3978449  )
        31        H      tau(  31) = (   0.3178939  -0.3347969   0.3493534  )
        32        H      tau(  32) = (  -0.3178939   0.3347969   0.4543737  )
        33        H      tau(  33) = (   0.1309957   0.4427026   0.3493534  )
        34        H      tau(  34) = (  -0.1309956  -0.4427026   0.4543737  )
        35        H      tau(  35) = (  -0.4488895  -0.1079057   0.3493534  )
        36        H      tau(  36) = (   0.4488895   0.1079057   0.4543737  )

     number of k points=    14
                       cart. coord. in units 2pi/alat
        k(    1) = (   0.0000000   0.0000000   0.0000000), wk =   0.0312500
        k(    2) = (  -0.1498141  -0.0864952   0.3110508), wk =   0.1875000
        k(    3) = (   0.2996283   0.1729905  -0.6221017), wk =   0.0937500
        k(    4) = (  -0.1498141   0.0864952   0.6221017), wk =   0.1875000
        k(    5) = (   0.2996283   0.3459809  -0.3110508), wk =   0.1875000
        k(    6) = (   0.1498141   0.2594857   0.0000000), wk =   0.1875000
        k(    7) = (   0.2996283  -0.1729905  -1.2442034), wk =   0.0937500
        k(    8) = (   0.0000000   0.0000000   0.9331525), wk =   0.0625000
        k(    9) = (   0.4494424   0.2594857   0.0000000), wk =   0.1875000
        k(   10) = (   0.2996283   0.1729905   0.3110508), wk =   0.1875000
        k(   11) = (   0.4494424  -0.2594857  -0.9331525), wk =   0.1875000
        k(   12) = (   0.2996283  -0.3459809  -0.6221017), wk =   0.1875000
        k(   13) = (   0.0000000   0.0000000  -1.8663050), wk =   0.0312500
        k(   14) = (   0.2996283  -0.3459809   0.3110508), wk =   0.1875000

     Dense  grid:   254413 G-vectors     FFT dimensions: (  96,  96,  96)

     Estimated max dynamical RAM per process >      16.65 MB

     Estimated total dynamical RAM >       1.90 GB

     Initial potential from superposition of free atoms

     starting charge      95.9998, renormalised to      96.0000
     Starting wfcs are   72 randomized atomic wfcs

     total cpu time spent up to now is        1.5 secs

     per-process dynamical memory:    20.6 Mb

     Self-consistent Calculation

     iteration #  1     ecut=    90.00 Ry     beta= 0.70
     Davidson diagonalization with overlap
     ethr =  1.00E-02,  avg # of iterations =  2.0

     negative rho (up, down):  4.536E-08 0.000E+00

     total cpu time spent up to now is        2.4 secs

     total energy              =    -412.24310366 Ry
     estimated scf accuracy    <       3.65806691 Ry

     iteration #  2     ecut=    90.00 Ry     beta= 0.70
     Davidson diagonalization with overlap
     ethr =  3.81E-03,  avg # of iterations =  3.0

     negative rho (up, down):  4.590E-08 0.000E+00

     total cpu time spent up to now is        3.5 secs

     total energy              =    -413.38931095 Ry
     estimated scf accuracy    <       2.56578279 Ry

     iteration #  3     ecut=    90.00 Ry     beta= 0.70
     Davidson diagonalization with overlap
     ethr =  2.67E-03,  avg # of iterations =  2.0

     negative rho (up, down):  3.025E-07 0.000E+00

     total cpu time spent up to now is        4.4 secs

     total energy              =    -413.71169464 Ry
     estimated scf accuracy    <       0.11562590 Ry

     iteration #  4     ecut=    90.00 Ry     beta= 0.70
     Davidson diagonalization with overlap
     ethr =  1.20E-04,  avg # of iterations =  4.0

     negative rho (up, down):  4.841E-07 0.000E+00

     total cpu time spent up to now is        5.6 secs

     total energy              =    -413.80236875 Ry
     estimated scf accuracy    <       0.13308799 Ry

     iteration #  5     ecut=    90.00 Ry     beta= 0.70
     Davidson diagonalization with overlap
     ethr =  1.20E-04,  avg # of iterations =  2.0

     negative rho (up, down):  5.921E-07 0.000E+00

     total cpu time spent up to now is        6.3 secs

     total energy              =    -413.80579729 Ry
     estimated scf accuracy    <       0.02293960 Ry

     iteration #  6     ecut=    90.00 Ry     beta= 0.70
     Davidson diagonalization with overlap
     ethr =  2.39E-05,  avg # of iterations =  2.0

     negative rho (up, down):  6.871E-07 0.000E+00

     total cpu time spent up to now is        7.1 secs

     total energy              =    -413.80577692 Ry
     estimated scf accuracy    <       0.00663091 Ry

     iteration #  7     ecut=    90.00 Ry     beta= 0.70
     Davidson diagonalization with overlap
     ethr =  6.91E-06,  avg # of iterations =  3.0

     negative rho (up, down):  7.037E-07 0.000E+00

     total cpu time spent up to now is        8.1 secs

     total energy              =    -413.80741666 Ry
     estimated scf accuracy    <       0.00011487 Ry

     iteration #  8     ecut=    90.00 Ry     beta= 0.70
     Davidson diagonalization with overlap
     ethr =  1.20E-07,  avg # of iterations =  6.0

     negative rho (up, down):  6.902E-07 0.000E+00

     total cpu time spent up to now is        9.6 secs

     total energy              =    -413.80747180 Ry
     estimated scf accuracy    <       0.00083278 Ry

     iteration #  9     ecut=    90.00 Ry     beta= 0.70
     Davidson diagonalization with overlap
     ethr =  1.20E-07,  avg # of iterations =  3.0

     negative rho (up, down):  6.674E-07 0.000E+00

     total cpu time spent up to now is       10.6 secs

     total energy              =    -413.80743147 Ry
     estimated scf accuracy    <       0.00021002 Ry

     iteration # 10     ecut=    90.00 Ry     beta= 0.70
     Davidson diagonalization with overlap
     ethr =  1.20E-07,  avg # of iterations =  3.0

     negative rho (up, down):  6.655E-07 0.000E+00

     total cpu time spent up to now is       11.6 secs

     total energy              =    -413.80746876 Ry
     estimated scf accuracy    <       0.00000688 Ry

     iteration # 11     ecut=    90.00 Ry     beta= 0.70
     Davidson diagonalization with overlap
     ethr =  7.17E-09,  avg # of iterations =  3.5

     negative rho (up, down):  6.635E-07 0.000E+00

     total cpu time spent up to now is       12.6 secs

     total energy              =    -413.80747148 Ry
     estimated scf accuracy    <       0.00000060 Ry

     iteration # 12     ecut=    90.00 Ry     beta= 0.70
     Davidson diagonalization with overlap
     ethr =  6.21E-10,  avg # of iterations =  3.6

     negative rho (up, down):  6.646E-07 0.000E+00

     total cpu time spent up to now is       13.8 secs

     End of self-consistent calculation

          k = 0.0000 0.0000 0.0000 ( 31795 PWs)   bands (ev):

   -20.8653 -20.4649 -20.4649 -20.2668 -20.2668 -20.2405 -20.2405 -20.2306
   -20.2255 -19.9610 -19.9610 -19.6847  -8.2863  -8.1005  -8.0412  -8.0412
    -7.9782  -7.9782  -7.5583  -7.4150  -7.4150  -7.2067  -7.2067  -7.0885
    -7.0240  -6.2083  -6.2083  -5.6638  -5.6638  -5.5793  -5.5793  -5.3057
    -5.1357  -4.5186  -4.5186  -3.8817  -3.0932  -3.0932  -3.0016  -2.9260
    -2.8838  -2.8838  -2.7501  -2.7501  -2.7420  -2.7232  -2.6796  -2.6796

          k =-0.1498-0.0865 0.3111 ( 31779 PWs)   bands (ev):

   -20.8002 -20.5012 -20.4546 -20.3938 -20.3713 -20.3067 -20.1803 -20.1418
   -20.0943 -19.9663 -19.9295 -19.7377  -8.2358  -8.1618  -8.0884  -8.0464
    -7.9592  -7.9004  -7.5513  -7.3828  -7.3737  -7.2400  -7.1263  -7.0908
    -6.9070  -6.3441  -6.2263  -5.9699  -5.6654  -5.5481  -5.4082  -5.2011
    -5.1465  -4.5105  -4.4514  -4.0103  -3.1960  -3.1302  -3.0225  -2.9677
    -2.9174  -2.8873  -2.8478  -2.7866  -2.7312  -2.6920  -2.6641  -2.6201

          k = 0.2996 0.1730-0.6221 ( 31820 PWs)   bands (ev):

   -20.6330 -20.6298 -20.4817 -20.4742 -20.3704 -20.3693 -20.1288 -20.1237
   -19.9710 -19.9702 -19.8719 -19.8590  -8.2154  -8.1602  -8.0794  -8.0619
    -7.9600  -7.9048  -7.5003  -7.3860  -7.3497  -7.2490  -7.0521  -7.0506
    -6.6877  -6.5548  -6.2785  -6.1202  -5.6700  -5.5914  -5.4084  -5.2582
    -4.7618  -4.6320  -4.3930  -4.1724  -3.2889  -3.1471  -3.0459  -3.0167
    -2.9520  -2.9356  -2.8520  -2.7998  -2.7776  -2.6583  -2.6493  -2.5778

          k =-0.1498 0.0865 0.6221 ( 31790 PWs)   bands (ev):

   -20.6686 -20.5488 -20.5417 -20.4373 -20.4165 -20.3581 -20.1357 -20.0640
   -20.0338 -19.9303 -19.9136 -19.8348  -8.2224  -8.1385  -8.1214  -8.0193
    -7.9786  -7.8931  -7.5061  -7.4174  -7.3712  -7.1576  -7.0961  -7.0468
    -6.6922  -6.4934  -6.4049  -5.9660  -5.8054  -5.6328  -5.3355  -5.1420
    -4.9459  -4.4770  -4.4557  -4.1822  -3.2690  -3.1855  -3.0348  -2.9928
    -2.9621  -2.9153  -2.8773  -2.7981  -2.7696  -2.6676  -2.6518  -2.5724

          k = 0.2996 0.3460-0.3111 ( 31781 PWs)   bands (ev):

   -20.7146 -20.5775 -20.4875 -20.4598 -20.3929 -20.3291 -20.1405 -20.0501
   -20.0395 -19.9651 -19.9087 -19.8121  -8.2277  -8.2053  -8.0621  -8.0414
    -7.9863  -7.8975  -7.5309  -7.4746  -7.3591  -7.1279  -7.0978  -7.0365
    -6.8090  -6.5311  -6.3073  -5.9814  -5.9486  -5.4847  -5.3058  -5.0579
    -4.8440  -4.6243  -4.4336  -4.1599  -3.1918  -3.1266  -3.0497  -2.9832
    -2.9355  -2.8893  -2.8311  -2.8249  -2.7493  -2.7094  -2.6552  -2.5621

          k = 0.1498 0.2595 0.0000 ( 31780 PWs)   bands (ev):

   -20.8181 -20.5285 -20.4804 -20.3663 -20.3408 -20.2686 -20.1987 -20.1349
   -20.0991 -19.9703 -19.9396 -19.7268  -8.2718  -8.1723  -8.0813  -8.0424
    -7.9331  -7.9272  -7.5963  -7.4697  -7.2973  -7.2109  -7.1537  -7.0554
    -7.0237  -6.3338  -6.2114  -5.9593  -5.8516  -5.4299  -5.3082  -5.1823
    -5.0135  -4.5845  -4.4943  -3.9742  -3.0935  -3.0769  -3.0342  -2.9514
    -2.9158  -2.8921  -2.7886  -2.7720  -2.7433  -2.7342  -2.6409  -2.6283

          k = 0.2996-0.1730-1.2442 ( 31798 PWs)   bands (ev):

   -20.7040 -20.6728 -20.4921 -20.4118 -20.3394 -20.2918 -20.1486 -20.1207
   -20.0176 -20.0013 -19.8426 -19.8289  -8.2520  -8.2176  -8.0951  -8.0609
    -7.9053  -7.9049  -7.5885  -7.5280  -7.2772  -7.2349  -7.0690  -7.0290
    -6.7557  -6.7112  -6.2766  -6.0607  -5.7643  -5.5474  -5.1962  -4.9473
    -4.8475  -4.7663  -4.3537  -4.1753  -3.1057  -3.0631  -3.0510  -2.9813
    -2.9168  -2.8688  -2.8456  -2.7812  -2.7709  -2.7322  -2.6101  -2.5954

          k = 0.0000 0.0000 0.9332 ( 31815 PWs)   bands (ev):

   -20.6198 -20.6198 -20.5502 -20.5133 -20.3576 -20.3576 -20.0736 -20.0736
   -19.9614 -19.9364 -19.9071 -19.9071  -8.2065  -8.2065  -8.0800  -7.9859
    -7.9859  -7.9680  -7.5384  -7.4451  -7.4451  -7.0431  -7.0431  -7.0091
    -6.6253  -6.6197  -6.6197  -6.0057  -5.7251  -5.7251  -5.1088  -4.9293
    -4.9293  -4.4952  -4.4952  -4.3277  -3.1399  -3.1399  -3.0268  -2.9766
    -2.9090  -2.9090  -2.8602  -2.7992  -2.7992  -2.6964  -2.6964  -2.5404

          k = 0.4494 0.2595 0.0000 ( 31782 PWs)   bands (ev):

   -20.7307 -20.5840 -20.5801 -20.4136 -20.2912 -20.2847 -20.1634 -20.1570
   -20.0184 -19.9376 -19.9083 -19.8026  -8.2476  -8.2067  -8.1460  -8.0023
    -7.9473  -7.8857  -7.6051  -7.4827  -7.3622  -7.1392  -7.0933  -7.0477
    -6.8494  -6.4994  -6.4266  -6.0146  -5.7844  -5.5400  -5.1169  -5.0790
    -4.8887  -4.5928  -4.4575  -4.1498  -3.0906  -3.0834  -3.0412  -2.9855
    -2.9324  -2.8802  -2.8155  -2.7950  -2.7505  -2.7112  -2.6569  -2.5786

          k = 0.2996 0.1730 0.3111 ( 31777 PWs)   bands (ev):

   -20.7562 -20.5401 -20.4638 -20.4479 -20.3710 -20.3206 -20.1528 -20.1246
   -20.0646 -19.9551 -19.9095 -19.7712  -8.2467  -8.1917  -8.1131  -7.9963
    -7.9913  -7.8549  -7.5635  -7.4473  -7.2791  -7.2111  -7.1703  -7.0813
    -6.8341  -6.3527  -6.1913  -6.1067  -5.8848  -5.5706  -5.2940  -5.1082
    -4.9491  -4.5784  -4.4393  -4.0537  -3.2089  -3.1361  -3.0688  -3.0170
    -2.9307  -2.8931  -2.8247  -2.7963  -2.7210  -2.6821  -2.6294  -2.6117

          k = 0.4494-0.2595-0.9332 ( 31769 PWs)   bands (ev):

   -20.6419 -20.6409 -20.5189 -20.4762 -20.3608 -20.2929 -20.1874 -20.1127
   -19.9881 -19.9388 -19.8951 -19.8229  -8.2738  -8.1810  -8.1427  -8.0028
    -7.9592  -7.8357  -7.6028  -7.4048  -7.2956  -7.2434  -7.1123  -7.0872
    -6.5977  -6.5590  -6.2619  -6.1153  -5.9400  -5.6523  -5.2556  -4.9906
    -4.6925  -4.6732  -4.4829  -4.1166  -3.2110  -3.1528  -3.1193  -3.0166
    -2.9847  -2.9068  -2.7801  -2.7594  -2.7337  -2.6947  -2.6310  -2.5794

          k = 0.2996-0.3460-0.6221 ( 31772 PWs)   bands (ev):

   -20.6019 -20.6010 -20.5095 -20.5036 -20.3874 -20.3866 -20.1146 -20.1104
   -19.9764 -19.9708 -19.8658 -19.8545  -8.2872  -8.1012  -8.0722  -8.0554
    -8.0224  -7.8403  -7.5309  -7.4123  -7.2787  -7.2336  -7.0947  -7.0897
    -6.5636  -6.4409  -6.2934  -6.1684  -5.8703  -5.8350  -5.1804  -5.1106
    -4.7023  -4.6589  -4.4999  -4.1014  -3.3179  -3.1657  -3.1179  -3.0524
    -3.0047  -2.8808  -2.8199  -2.7839  -2.7654  -2.6514  -2.6360  -2.5632

          k = 0.0000 0.0000-1.8663 ( 31764 PWs)   bands (ev):

   -20.5747 -20.5682 -20.4791 -20.4791 -20.4704 -20.4704 -20.0471 -20.0471
   -20.0246 -20.0246 -19.8523 -19.8443  -8.3312  -8.0694  -8.0694  -8.0459
    -8.0459  -7.8101  -7.5771  -7.4072  -7.1911  -7.1911  -7.1599  -7.1599
    -6.4071  -6.2208  -6.1873  -6.1873  -6.1627  -6.1627  -4.9774  -4.9774
    -4.7323  -4.7323  -4.5273  -4.0535  -3.3470  -3.1667  -3.1667  -3.0847
    -3.0847  -2.8320  -2.8136  -2.7291  -2.7291  -2.6632  -2.6632  -2.5403

          k = 0.2996-0.3460 0.3111 ( 31781 PWs)   bands (ev):

   -20.7145 -20.5779 -20.4880 -20.4601 -20.3905 -20.3298 -20.1408 -20.0599
   -20.0272 -19.9710 -19.9041 -19.8134  -8.2425  -8.1738  -8.0968  -8.0393
    -7.9569  -7.9058  -7.5733  -7.4466  -7.3356  -7.1625  -7.0655  -7.0555
    -6.8037  -6.4682  -6.3929  -6.0354  -5.8051  -5.5422  -5.3829  -4.9762
    -4.8267  -4.6100  -4.4957  -4.1416  -3.1985  -3.1011  -3.0655  -2.9799
    -2.9388  -2.8948  -2.8302  -2.8264  -2.7657  -2.6815  -2.6560  -2.5696

     highest occupied level (ev):    -2.5403

!    total energy              =    -413.80747176 Ry
     estimated scf accuracy    <       0.00000005 Ry

     The total energy is the sum of the following terms:
     one-electron contribution =    -299.40252222 Ry
     hartree contribution      =     183.06461406 Ry
     xc contribution           =    -100.64867282 Ry
     ewald contribution        =    -196.82089078 Ry

     convergence has been achieved in  12 iterations

     Forces acting on atoms (cartesian axes, Ry/au):

     atom    1 type  2   force =    -0.04641217    0.09650244    0.05303052
     atom    2 type  2   force =     0.04641217   -0.09650244   -0.05303052
     atom    3 type  2   force =    -0.06036748   -0.08844534    0.05303052
     atom    4 type  2   force =     0.06036748    0.08844534   -0.05303052
     atom    5 type  2   force =     0.10677965   -0.00805710    0.05303052
     atom    6 type  2   force =    -0.10677965    0.00805710   -0.05303052
     atom    7 type  2   force =    -0.05755952    0.04197434   -0.03833742
     atom    8 type  2   force =     0.05755952   -0.04197434    0.03833742
     atom    9 type  2   force =    -0.00757109   -0.07083518   -0.03833742
     atom   10 type  2   force =     0.00757109    0.07083518    0.03833742
     atom   11 type  2   force =     0.06513061    0.02886084   -0.03833742
     atom   12 type  2   force =    -0.06513061   -0.02886084    0.03833742
     atom   13 type  1   force =     0.01578553   -0.05247955   -0.03996183
     atom   14 type  1   force =    -0.01578553    0.05247955    0.03996183
     atom   15 type  1   force =     0.03755586    0.03991045   -0.03996183
     atom   16 type  1   force =    -0.03755586   -0.03991045    0.03996183
     atom   17 type  1   force =    -0.05334139    0.01256910   -0.03996183
     atom   18 type  1   force =     0.05334139   -0.01256910    0.03996183
     atom   19 type  1   force =     0.02806583   -0.05050998   -0.02269861
     atom   20 type  1   force =    -0.02806583    0.05050998    0.02269861
     atom   21 type  1   force =     0.02971001    0.04956071   -0.02269861
     atom   22 type  1   force =    -0.02971001   -0.04956071    0.02269861
     atom   23 type  1   force =    -0.05777584    0.00094927   -0.02269861
     atom   24 type  1   force =     0.05777584   -0.00094927    0.02269861
     atom   25 type  1   force =    -0.02280497   -0.03452643    0.01411901
     atom   26 type  1   force =     0.02280497    0.03452643   -0.01411901
     atom   27 type  1   force =     0.04130325   -0.00248647    0.01411901
     atom   28 type  1   force =    -0.04130325    0.00248647   -0.01411901
     atom   29 type  1   force =    -0.01849828    0.03701290    0.01411901
     atom   30 type  1   force =     0.01849828   -0.03701290   -0.01411901
     atom   31 type  1   force =    -0.04983205    0.00910722    0.03277804
     atom   32 type  1   force =     0.04983205   -0.00910722   -0.03277804
     atom   33 type  1   force =     0.01702894   -0.04770944    0.03277804
     atom   34 type  1   force =    -0.01702894    0.04770944   -0.03277804
     atom   35 type  1   force =     0.03280311    0.03860221    0.03277804
     atom   36 type  1   force =    -0.03280311   -0.03860221   -0.03277804

     Total force =     0.457145     Total SCF correction =     0.000298


     Computing stress (Cartesian axis) and pressure

          total   stress  (Ry/bohr**3)                   (kbar)     P=      -68.22
  -0.00054299   0.00000000  -0.00000000          -79.88        0.00       -0.00
  -0.00000000  -0.00054299  -0.00000000           -0.00      -79.88       -0.00
  -0.00000000  -0.00000000  -0.00030532           -0.00       -0.00      -44.91


     BFGS Geometry Optimization
     Energy error            =      0.0E+00 Ry
     Gradient error          =      1.1E-01 Ry/Bohr

     number of scf cycles    =   1
     number of bfgs steps    =   0

     energy             new  =    -413.8074717597 Ry

     new trust radius        =       0.1194949688 bohr
     new conv_thr            =       0.0000001000 Ry


ATOMIC_POSITIONS (crystal)
O                0.2733175028        0.0328181661        0.8580123184
O                0.7266824972        0.9671818449        0.1419876516
O                0.8580123184        0.2733175028        0.0328181661
O                0.1419876516        0.7266824972        0.9671818449
O                0.0328181661        0.8580123184        0.2733175028
O                0.9671818449        0.1419876516        0.7266824972
O                0.4715758524        0.7487608768        0.3301581341
O                0.5284241476        0.2512391232        0.6698418359
O                0.3301581341        0.4715758524        0.7487608768
O                0.6698418359        0.5284241476        0.2512391232
O                0.7487608768        0.3301581341        0.4715758524
O                0.2512391232        0.6698418359        0.5284241476
H                0.1635317732        0.0632852877        0.8072750912
H                0.8364682128        0.9367147043        0.1927249088
H                0.8072750912        0.1635317732        0.0632852877
H                0.1927249088        0.8364682128        0.9367147043
H                0.0632852877        0.8072750912        0.1635317732
H                0.9367147043        0.1927249088        0.8364682128
H                0.4134020120        0.2008025216        0.9951676988
H                0.5865979880        0.7991974934        0.0048322802
H                0.9951676988        0.4134020120        0.2008025216
H                0.0048322802        0.5865979880        0.7991974934
H                0.2008025216        0.9951676988        0.4134020120
H                0.7991974934        0.0048322802        0.5865979880
H                0.7200525534        0.4005799270        0.3978680727
H                0.2799474466        0.5994200430        0.6021319573
H                0.3978680727        0.7200525534        0.4005799270
H                0.6021319573        0.2799474466        0.5994200430
H                0.4005799270        0.3978680727        0.7200525534
H                0.5994200430        0.6021319573        0.2799474466
H                0.7415160698        0.2061275031        0.3644831872
H                0.2584839302        0.7938724819        0.6355168128
H                0.3644831872        0.7415160698        0.2061275031
H                0.6355168128        0.2584839302        0.7938724819
H                0.2061275031        0.3644831872        0.7415160698
H                0.7938724819        0.6355168128        0.2584839302



     Writing config-only to output data dir ./iceII/iceII.save/ :
     XML data file
     NEW-OLD atomic charge density approx. for the potential

     negative rho (up, down):  7.697E-07 0.000E+00

     total cpu time spent up to now is       15.0 secs

     per-process dynamical memory:    22.8 Mb

     Self-consistent Calculation

     iteration #  1     ecut=    90.00 Ry     beta= 0.70
     Davidson diagonalization with overlap
     ethr =  1.00E-06,  avg # of iterations = 10.0

     negative rho (up, down):  1.281E-06 0.000E+00

     total cpu time spent up to now is       17.5 secs

     total energy              =    -413.88768152 Ry
     estimated scf accuracy    <       0.06648477 Ry

     iteration #  2     ecut=    90.00 Ry     beta= 0.70
     Davidson diagonalization with overlap
     ethr =  6.93E-05,  avg # of iterations =  3.0

     negative rho (up, down):  1.193E-06 0.000E+00

     total cpu time spent up to now is       18.6 secs

     total energy              =    -413.90609982 Ry
     estimated scf accuracy    <       0.02388726 Ry

     iteration #  3     ecut=    90.00 Ry     beta= 0.70
     Davidson diagonalization with overlap
     ethr =  2.49E-05,  avg # of iterations =  2.0

     negative rho (up, down):  1.259E-06 0.000E+00

     total cpu time spent up to now is       19.4 secs

     total energy              =    -413.90957053 Ry
     estimated scf accuracy    <       0.00070588 Ry

     iteration #  4     ecut=    90.00 Ry     beta= 0.70
     Davidson diagonalization with overlap
     ethr =  7.35E-07,  avg # of iterations =  5.0

     negative rho (up, down):  1.369E-06 0.000E+00

     total cpu time spent up to now is       20.5 secs

     total energy              =    -413.91003551 Ry
     estimated scf accuracy    <       0.00084897 Ry

     iteration #  5     ecut=    90.00 Ry     beta= 0.70
     Davidson diagonalization with overlap
     ethr =  7.35E-07,  avg # of iterations =  2.0

     negative rho (up, down):  1.454E-06 0.000E+00

     total cpu time spent up to now is       21.3 secs

     total energy              =    -413.91009477 Ry
     estimated scf accuracy    <       0.00008182 Ry

     iteration #  6     ecut=    90.00 Ry     beta= 0.70
     Davidson diagonalization with overlap
     ethr =  8.52E-08,  avg # of iterations =  4.0

     negative rho (up, down):  1.421E-06 0.000E+00

     total cpu time spent up to now is       22.5 secs

     total energy              =    -413.91013123 Ry
     estimated scf accuracy    <       0.00009106 Ry

     iteration #  7     ecut=    90.00 Ry     beta= 0.70
     Davidson diagonalization with overlap
     ethr =  8.52E-08,  avg # of iterations =  2.0

     negative rho (up, down):  1.409E-06 0.000E+00

     total cpu time spent up to now is       23.4 secs

     total energy              =    -413.91014708 Ry
     estimated scf accuracy    <       0.00000154 Ry

     iteration #  8     ecut=    90.00 Ry     beta= 0.70
     Davidson diagonalization with overlap
     ethr =  1.61E-09,  avg # of iterations =  5.0

     negative rho (up, down):  1.410E-06 0.000E+00

     total cpu time spent up to now is       24.7 secs

     total energy              =    -413.91014884 Ry
     estimated scf accuracy    <       0.00000079 Ry

     iteration #  9     ecut=    90.00 Ry     beta= 0.70
     Davidson diagonalization with overlap
     ethr =  8.18E-10,  avg # of iterations =  2.0

     negative rho (up, down):  1.411E-06 0.000E+00

     total cpu time spent up to now is       25.4 secs

     total energy              =    -413.91014877 Ry
     estimated scf accuracy    <       0.00000024 Ry

     iteration # 10     ecut=    90.00 Ry     beta= 0.70
     Davidson diagonalization with overlap
     ethr =  2.45E-10,  avg # of iterations =  2.1

     negative rho (up, down):  1.412E-06 0.000E+00

     total cpu time spent up to now is       26.3 secs

     End of self-consistent calculation

          k = 0.0000 0.0000 0.0000 ( 31795 PWs)   bands (ev):

   -21.3279 -20.9751 -20.9751 -20.7723 -20.7723 -20.7685 -20.7685 -20.7525
   -20.7450 -20.5055 -20.5055 -20.2723  -8.8457  -8.6726  -8.6162  -8.6162
    -8.6038  -8.6038  -8.1325  -8.1325  -8.0406  -8.0246  -8.0246  -7.8947
    -7.0839  -6.0958  -6.0958  -5.5328  -5.5328  -5.4886  -5.4886  -5.2194
    -5.1675  -4.5363  -4.5363  -3.9320  -3.2120  -3.2120  -3.1754  -3.0083
    -3.0083  -2.9936  -2.8624  -2.8379  -2.8379  -2.8297  -2.7645  -2.7645

          k =-0.1498-0.0865 0.3111 ( 31779 PWs)   bands (ev):

   -21.2686 -21.0020 -20.9688 -20.8899 -20.8793 -20.8273 -20.7029 -20.6647
   -20.6291 -20.5139 -20.4818 -20.3167  -8.8082  -8.6999  -8.6540  -8.6434
    -8.5850  -8.5343  -8.1465  -8.1184  -8.0448  -7.9927  -7.9719  -7.9393
    -6.9106  -6.2333  -6.1309  -5.8415  -5.6268  -5.4094  -5.3308  -5.1303
    -5.0660  -4.5334  -4.4665  -4.0462  -3.3025  -3.2423  -3.1736  -3.0490
    -3.0407  -3.0063  -2.9591  -2.8775  -2.8231  -2.7805  -2.7586  -2.7147

          k = 0.2996 0.1730-0.6221 ( 31820 PWs)   bands (ev):

   -21.1302 -21.0996 -20.9987 -20.9504 -20.8970 -20.8759 -20.6634 -20.6342
   -20.5353 -20.5096 -20.4474 -20.4081  -8.7461  -8.7350  -8.6770  -8.6430
    -8.5787  -8.5211  -8.1324  -8.0997  -8.0399  -8.0263  -7.9353  -7.9249
    -6.5943  -6.4611  -6.1867  -6.0423  -5.6255  -5.5336  -5.2524  -5.0952
    -4.7339  -4.6153  -4.4110  -4.2073  -3.3821  -3.2570  -3.1699  -3.1080
    -3.0713  -3.0575  -2.9480  -2.8976  -2.8866  -2.7475  -2.7364  -2.6731

          k =-0.1498 0.0865 0.6221 ( 31790 PWs)   bands (ev):

   -21.1506 -21.0413 -21.0345 -20.9420 -20.9184 -20.8739 -20.6589 -20.6015
   -20.5709 -20.4877 -20.4736 -20.3964  -8.7524  -8.7178  -8.7026  -8.6160
    -8.5918  -8.5191  -8.1249  -8.1092  -8.0692  -7.9777  -7.9503  -7.9285
    -6.6236  -6.3570  -6.3195  -5.9048  -5.7257  -5.5742  -5.1915  -5.0197
    -4.8697  -4.4950  -4.4690  -4.2121  -3.3642  -3.2899  -3.1567  -3.1057
    -3.0828  -3.0113  -2.9866  -2.8996  -2.8706  -2.7566  -2.7394  -2.6677

          k = 0.2996 0.3460-0.3111 ( 31781 PWs)   bands (ev):

   -21.1919 -21.0763 -20.9857 -20.9578 -20.8886 -20.8441 -20.6667 -20.6077
   -20.5746 -20.5093 -20.4661 -20.3759  -8.7755  -8.7469  -8.6607  -8.6285
    -8.5865  -8.5117  -8.1941  -8.1688  -8.0864  -7.9587  -7.9316  -7.9089
    -6.6664  -6.3842  -6.1608  -5.9360  -5.8913  -5.4449  -5.1281  -5.0243
    -4.8270  -4.6057  -4.4431  -4.1793  -3.3020  -3.2423  -3.1769  -3.1146
    -3.0325  -2.9859  -2.9444  -2.9238  -2.8521  -2.7979  -2.7425  -2.6540

          k = 0.1498 0.2595 0.0000 ( 31780 PWs)   bands (ev):

   -21.2854 -21.0326 -20.9892 -20.8665 -20.8403 -20.7761 -20.7326 -20.6723
   -20.6416 -20.5138 -20.4833 -20.3067  -8.8263  -8.7103  -8.6543  -8.6427
    -8.5577  -8.5443  -8.2164  -8.1699  -8.0437  -8.0116  -7.9656  -7.8948
    -6.9272  -6.1887  -6.0882  -5.8739  -5.7614  -5.3739  -5.2316  -5.0849
    -5.0224  -4.5838  -4.5093  -4.0096  -3.2134  -3.2004  -3.1889  -3.0718
    -3.0144  -2.9907  -2.8858  -2.8704  -2.8602  -2.8217  -2.7284  -2.7169

          k = 0.2996-0.1730-1.2442 ( 31798 PWs)   bands (ev):

   -21.1806 -21.1607 -21.0011 -20.9041 -20.8471 -20.7887 -20.6994 -20.6535
   -20.5802 -20.5313 -20.4091 -20.3840  -8.7888  -8.7598  -8.6651  -8.6506
    -8.5328  -8.5144  -8.2670  -8.2039  -8.0561  -8.0054  -7.9196  -7.9012
    -6.5638  -6.5358  -6.1145  -6.0362  -5.6999  -5.4944  -5.1253  -4.9561
    -4.8016  -4.7375  -4.3621  -4.1841  -3.2277  -3.1913  -3.1863  -3.1149
    -3.0232  -2.9597  -2.9383  -2.8956  -2.8609  -2.8234  -2.7001  -2.6867

          k = 0.0000 0.0000 0.9332 ( 31815 PWs)   bands (ev):

   -21.1057 -21.1057 -21.0694 -20.9815 -20.8642 -20.8642 -20.6139 -20.6139
   -20.5425 -20.4638 -20.4638 -20.4562  -8.7522  -8.7522  -8.6971  -8.5791
    -8.5791  -8.5574  -8.2170  -8.1421  -8.1421  -7.9177  -7.9177  -7.8949
    -6.4430  -6.4430  -6.4201  -5.9786  -5.6893  -5.6893  -4.9371  -4.8948
    -4.8948  -4.4918  -4.4918  -4.3466  -3.2569  -3.2569  -3.1614  -3.1193
    -3.0082  -3.0082  -2.9664  -2.8986  -2.8986  -2.7773  -2.7773  -2.6311

          k = 0.4494 0.2595 0.0000 ( 31782 PWs)   bands (ev):

   -21.2071 -21.0805 -21.0757 -20.8985 -20.8165 -20.7877 -20.7014 -20.6818
   -20.5825 -20.4856 -20.4549 -20.3676  -8.7925  -8.7409  -8.7064  -8.6079
    -8.5643  -8.4996  -8.2778  -8.1709  -8.1045  -7.9574  -7.9369  -7.9047
    -6.6658  -6.3256  -6.2629  -5.9995  -5.7071  -5.4701  -5.0934  -5.0542
    -4.8365  -4.5725  -4.4619  -4.1628  -3.2148  -3.2050  -3.1810  -3.1196
    -3.0338  -2.9734  -2.9228  -2.8941  -2.8462  -2.8024  -2.7446  -2.6695

          k = 0.2996 0.1730 0.3111 ( 31777 PWs)   bands (ev):

   -21.2294 -21.0415 -20.9700 -20.9424 -20.8720 -20.8364 -20.6777 -20.6691
   -20.5861 -20.5167 -20.4604 -20.3430  -8.7935  -8.7240  -8.6753  -8.6260
    -8.5919  -8.4915  -8.2112  -8.1051  -8.0426  -8.0235  -7.9445  -7.9392
    -6.7723  -6.2503  -6.1222  -5.9767  -5.7843  -5.4477  -5.2369  -5.0641
    -4.9029  -4.5763  -4.4501  -4.0812  -3.3184  -3.2457  -3.1964  -3.1076
    -3.0479  -2.9978  -2.9380  -2.8942  -2.8189  -2.7863  -2.7198  -2.7035

          k = 0.4494-0.2595-0.9332 ( 31769 PWs)   bands (ev):

   -21.1334 -21.1240 -21.0205 -20.9588 -20.8679 -20.8173 -20.7043 -20.6532
   -20.5241 -20.5079 -20.4527 -20.3802  -8.7694  -8.7453  -8.7011  -8.6201
    -8.5796  -8.4624  -8.2515  -8.1214  -8.0464  -8.0280  -7.9406  -7.9297
    -6.5122  -6.3976  -6.1361  -6.1034  -5.8264  -5.4952  -5.2358  -4.9884
    -4.6691  -4.6345  -4.4788  -4.1333  -3.3244  -3.2596  -3.2253  -3.1162
    -3.0755  -3.0318  -2.8934  -2.8623  -2.8393  -2.7921  -2.7254  -2.6709

          k = 0.2996-0.3460-0.6221 ( 31772 PWs)   bands (ev):

   -21.1096 -21.0684 -21.0145 -20.9874 -20.9021 -20.8928 -20.6517 -20.6349
   -20.5255 -20.5120 -20.4517 -20.3987  -8.7737  -8.6987  -8.6748  -8.6407
    -8.6197  -8.4695  -8.1508  -8.1244  -8.0238  -8.0156  -7.9529  -7.9478
    -6.4882  -6.3650  -6.1880  -6.1269  -5.7328  -5.6928  -5.1072  -5.0365
    -4.6801  -4.6363  -4.4932  -4.1376  -3.4076  -3.2695  -3.2273  -3.1408
    -3.1090  -2.9764  -2.9442  -2.8936  -2.8737  -2.7487  -2.7340  -2.6539

          k = 0.0000 0.0000-1.8663 ( 31764 PWs)   bands (ev):

   -21.0926 -21.0224 -20.9946 -20.9946 -20.9551 -20.9551 -20.6090 -20.6090
   -20.5427 -20.5427 -20.4427 -20.3886  -8.7871  -8.6743  -8.6743  -8.6400
    -8.6400  -8.4362  -8.1694  -8.1433  -7.9973  -7.9973  -7.9821  -7.9821
    -6.3984  -6.2903  -6.0402  -6.0402  -5.9771  -5.9771  -4.9411  -4.9411
    -4.7116  -4.7116  -4.4921  -4.0894  -3.4325  -3.2658  -3.2658  -3.1684
    -3.1684  -2.9579  -2.9247  -2.8384  -2.8384  -2.7667  -2.7667  -2.6309

          k = 0.2996-0.3460 0.3111 ( 31781 PWs)   bands (ev):

   -21.1925 -21.0701 -21.0027 -20.9490 -20.8839 -20.8440 -20.6712 -20.6149
   -20.5431 -20.5398 -20.4554 -20.3781  -8.7836  -8.7261  -8.6722  -8.6460
    -8.5585  -8.5227  -8.2118  -8.1536  -8.0817  -7.9589  -7.9330  -7.9103
    -6.6731  -6.3152  -6.2598  -5.9701  -5.7617  -5.4964  -5.2370  -4.9140
    -4.7894  -4.6226  -4.4869  -4.1649  -3.3063  -3.2278  -3.1894  -3.1048
    -3.0270  -2.9990  -2.9390  -2.9336  -2.8660  -2.7700  -2.7455  -2.6606

     highest occupied level (ev):    -2.6309

!    total energy              =    -413.91014882 Ry
     estimated scf accuracy    <          2.8E-09 Ry

     The total energy is the sum of the following terms:
     one-electron contribution =    -308.76231269 Ry
     hartree contribution      =     187.32553928 Ry
     xc contribution           =    -101.68930245 Ry
     ewald contribution        =    -190.78407296 Ry

     convergence has been achieved in  10 iterations

     Forces acting on atoms (cartesian axes, Ry/au):

     atom    1 type  2   force =    -0.00162831   -0.01097709   -0.00379835
     atom    2 type  2   force =     0.00162831    0.01097709    0.00379835
     atom    3 type  2   force =     0.01032059    0.00407839   -0.00379835
     atom    4 type  2   force =    -0.01032059   -0.00407839    0.00379835
     atom    5 type  2   force =    -0.00869228    0.00689870   -0.00379835
     atom    6 type  2   force =     0.00869228   -0.00689870    0.00379835
     atom    7 type  2   force =     0.00733582   -0.01295927    0.00664841
     atom    8 type  2   force =    -0.00733582    0.01295927   -0.00664841
     atom    9 type  2   force =     0.00755515    0.01283264    0.00664841
     atom   10 type  2   force =    -0.00755515   -0.01283264   -0.00664841
     atom   11 type  2   force =    -0.01489096    0.00012663    0.00664841
     atom   12 type  2   force =     0.01489096   -0.00012663   -0.00664841
     atom   13 type  1   force =    -0.01768995    0.02301605   -0.04253669
     atom   14 type  1   force =     0.01768995   -0.02301605    0.04253669
     atom   15 type  1   force =    -0.01108751   -0.02682797   -0.04253669
     atom   16 type  1   force =     0.01108751    0.02682797    0.04253669
     atom   17 type  1   force =     0.02877746    0.00381192   -0.04253669
     atom   18 type  1   force =    -0.02877746   -0.00381192    0.04253669
     atom   19 type  1   force =     0.01985871   -0.01656005    0.04006837
     atom   20 type  1   force =    -0.01985871    0.01656005   -0.04006837
     atom   21 type  1   force =     0.00441207    0.02547818    0.04006837
     atom   22 type  1   force =    -0.00441207   -0.02547818   -0.04006837
     atom   23 type  1   force =    -0.02427078   -0.00891812    0.04006837
     atom   24 type  1   force =     0.02427078    0.00891812   -0.04006837
     atom   25 type  1   force =     0.00556667    0.01887270    0.00351202
     atom   26 type  1   force =    -0.00556667   -0.01887270   -0.00351202
     atom   27 type  1   force =    -0.01912758   -0.00461548    0.00351202
     atom   28 type  1   force =     0.01912758    0.00461548   -0.00351202
     atom   29 type  1   force =     0.01356091   -0.01425723    0.00351202
     atom   30 type  1   force =    -0.01356091    0.01425723   -0.00351202
     atom   31 type  1   force =     0.00487744   -0.01610089   -0.00618711
     atom   32 type  1   force =    -0.00487744    0.01610089    0.00618711
     atom   33 type  1   force =     0.01150506    0.01227443   -0.00618711
     atom   34 type  1   force =    -0.01150506   -0.01227443    0.00618711
     atom   35 type  1   force =    -0.01638249    0.00382646   -0.00618711
     atom   36 type  1   force =     0.01638249   -0.00382646    0.00618711

     Total force =     0.190533     Total SCF correction =     0.000062


     Computing stress (Cartesian axis) and pressure

          total   stress  (Ry/bohr**3)                   (kbar)     P=       15.33
   0.00004989  -0.00000000   0.00000000            7.34       -0.00        0.00
   0.00000000   0.00004989   0.00000000            0.00        7.34        0.00
   0.00000000   0.00000000   0.00021277            0.00        0.00       31.30

     Energy error            =      1.0E-01 Ry
     Gradient error          =      4.3E-02 Ry/Bohr

     number of scf cycles    =   2
     number of bfgs steps    =   1

     energy             old  =    -413.8074717597 Ry
     energy             new  =    -413.9101488244 Ry

     CASE: energy            _new < energy            _old

     new trust radius        =       0.0488921088 bohr
     new conv_thr            =       0.0000001000 Ry


ATOMIC_POSITIONS (crystal)
O                0.2732458093        0.0333051368        0.8585794010
O                0.7267541907        0.9666948742        0.1414205690
O                0.8585794010        0.2732458093        0.0333051368
O                0.1414205690        0.7267541907        0.9666948742
O                0.0333051368        0.8585794010        0.2732458093
O                0.9666948742        0.1414205690        0.7267541907
O                0.4717206470        0.7485441567        0.3304099806
O                0.5282793530        0.2514558433        0.6695899894
O                0.3304099806        0.4717206470        0.7485441567
O                0.6695899894        0.5282793530        0.2514558433
O                0.7485441567        0.3304099806        0.4717206470
O                0.2514558433        0.6695899894        0.5282793530
H                0.1589569384        0.0602209356        0.8038191141
H                0.8410430476        0.9397790564        0.1961808859
H                0.8038191141        0.1589569384        0.0602209356
H                0.1961808859        0.8410430476        0.9397790564
H                0.0602209356        0.8038191141        0.1589569384
H                0.9397790564        0.1961808859        0.8410430476
H                0.4175821918        0.2025584603        0.9975793286
H                0.5824178082        0.7974415547        0.0024206504
H                0.9975793286        0.4175821918        0.2025584603
H                0.0024206504        0.5824178082        0.7974415547
H                0.2025584603        0.9975793286        0.4175821918
H                0.7974415547        0.0024206504        0.5824178082
H                0.7202724100        0.4015858774        0.3979355161
H                0.2797275900        0.5984140926        0.6020645139
H                0.3979355161        0.7202724100        0.4015858774
H                0.6020645139        0.2797275900        0.5984140926
H                0.4015858774        0.3979355161        0.7202724100
H                0.5984140926        0.6020645139        0.2797275900
H                0.7416372380        0.2054160574        0.3648049526
H                0.2583627620        0.7945839276        0.6351950474
H                0.3648049526        0.7416372380        0.2054160574
H                0.6351950474        0.2583627620        0.7945839276
H                0.2054160574        0.3648049526        0.7416372380
H                0.7945839276        0.6351950474        0.2583627620



     Writing config-only to output data dir ./iceII/iceII.save/ :
     XML data file
     NEW-OLD atomic charge density approx. for the potential

     negative rho (up, down):  1.191E-06 0.000E+00

     total cpu time spent up to now is       27.5 secs

     per-process dynamical memory:    27.1 Mb

     Self-consistent Calculation

     iteration #  1     ecut=    90.00 Ry     beta= 0.70
     Davidson diagonalization with overlap
     ethr =  1.00E-06,  avg # of iterations =  5.7

     negative rho (up, down):  1.137E-06 0.000E+00

     total cpu time spent up to now is       28.9 secs

     total energy              =    -413.93331740 Ry
     estimated scf accuracy    <       0.00159223 Ry

     iteration #  2     ecut=    90.00 Ry     beta= 0.70
     Davidson diagonalization with overlap
     ethr =  1.66E-06,  avg # of iterations =  3.0

     negative rho (up, down):  1.207E-06 0.000E+00

     total cpu time spent up to now is       29.9 secs

     total energy              =    -413.93371563 Ry
     estimated scf accuracy    <       0.00048421 Ry

     iteration #  3     ecut=    90.00 Ry     beta= 0.70
     Davidson diagonalization with overlap
     ethr =  5.04E-07,  avg # of iterations =  2.0

     negative rho (up, down):  1.266E-06 0.000E+00

     total cpu time spent up to now is       30.7 secs

     total energy              =    -413.93379499 Ry
     estimated scf accuracy    <       0.00001765 Ry

     iteration #  4     ecut=    90.00 Ry     beta= 0.70
     Davidson diagonalization with overlap
     ethr =  1.84E-08,  avg # of iterations =  4.1

     negative rho (up, down):  1.256E-06 0.000E+00

     total cpu time spent up to now is       31.9 secs

     total energy              =    -413.93380292 Ry
     estimated scf accuracy    <       0.00002034 Ry

     iteration #  5     ecut=    90.00 Ry     beta= 0.70
     Davidson diagonalization with overlap
     ethr =  1.84E-08,  avg # of iterations =  2.0

     negative rho (up, down):  1.246E-06 0.000E+00

     total cpu time spent up to now is       32.7 secs

     total energy              =    -413.93380382 Ry
     estimated scf accuracy    <       0.00000254 Ry

     iteration #  6     ecut=    90.00 Ry     beta= 0.70
     Davidson diagonalization with overlap
     ethr =  2.65E-09,  avg # of iterations =  3.3

     negative rho (up, down):  1.250E-06 0.000E+00

     total cpu time spent up to now is       33.8 secs

     total energy              =    -413.93380505 Ry
     estimated scf accuracy    <       0.00000131 Ry

     iteration #  7     ecut=    90.00 Ry     beta= 0.70
     Davidson diagonalization with overlap
     ethr =  1.37E-09,  avg # of iterations =  2.0

     negative rho (up, down):  1.253E-06 0.000E+00

     total cpu time spent up to now is       34.6 secs

     End of self-consistent calculation

          k = 0.0000 0.0000 0.0000 ( 31795 PWs)   bands (ev):

   -21.2101 -20.8431 -20.8431 -20.6503 -20.6503 -20.6375 -20.6375 -20.6248
   -20.6073 -20.3678 -20.3678 -20.1341  -8.8145  -8.6497  -8.5887  -8.5887
    -8.5859  -8.5859  -8.1348  -8.1348  -8.0534  -8.0309  -8.0309  -7.9022
    -7.0236  -5.9871  -5.9871  -5.5070  -5.5070  -5.3824  -5.3824  -5.1045
    -5.1015  -4.4665  -4.4665  -3.8538  -3.1978  -3.1978  -3.1408  -2.9772
    -2.9772  -2.9592  -2.8452  -2.8083  -2.7957  -2.7957  -2.7478  -2.7478

          k =-0.1498-0.0865 0.3111 ( 31779 PWs)   bands (ev):

   -21.1500 -20.8728 -20.8359 -20.7699 -20.7479 -20.6925 -20.5759 -20.5382
   -20.4976 -20.3752 -20.3439 -20.1788  -8.7782  -8.6743  -8.6320  -8.6195
    -8.5636  -8.5127  -8.1506  -8.1229  -8.0507  -7.9998  -7.9756  -7.9449
    -6.8448  -6.1434  -6.0293  -5.7726  -5.6059  -5.3295  -5.2185  -5.0575
    -4.9505  -4.4627  -4.3970  -3.9791  -3.2837  -3.2270  -3.1421  -3.0267
    -3.0116  -2.9700  -2.9406  -2.8407  -2.8040  -2.7445  -2.7354  -2.6911

          k = 0.2996 0.1730-0.6221 ( 31820 PWs)   bands (ev):

   -21.0119 -20.9756 -20.8621 -20.8316 -20.7640 -20.7401 -20.5374 -20.5064
   -20.4098 -20.3659 -20.3065 -20.2724  -8.7179  -8.7064  -8.6536  -8.6217
    -8.5602  -8.4978  -8.1342  -8.1057  -8.0458  -8.0313  -7.9380  -7.9282
    -6.5029  -6.3942  -6.0916  -5.9967  -5.5720  -5.5015  -5.1080  -4.9787
    -4.6236  -4.5472  -4.3477  -4.1668  -3.3605  -3.2426  -3.1499  -3.0739
    -3.0338  -3.0334  -2.9235  -2.8922  -2.8461  -2.7303  -2.6926  -2.6488

          k =-0.1498 0.0865 0.6221 ( 31790 PWs)   bands (ev):

   -21.0315 -20.9167 -20.9064 -20.8133 -20.7884 -20.7391 -20.5331 -20.4715
   -20.4403 -20.3514 -20.3335 -20.2582  -8.7231  -8.6903  -8.6780  -8.6005
    -8.5676  -8.4967  -8.1272  -8.1147  -8.0750  -7.9814  -7.9543  -7.9318
    -6.5374  -6.2800  -6.2456  -5.8400  -5.6772  -5.5226  -5.0737  -4.8852
    -4.7737  -4.4316  -4.3951  -4.1723  -3.3443  -3.2707  -3.1398  -3.0624
    -3.0555  -2.9883  -2.9646  -2.8714  -2.8501  -2.7341  -2.7008  -2.6414

          k = 0.2996 0.3460-0.3111 ( 31781 PWs)   bands (ev):

   -21.0717 -20.9428 -20.8802 -20.8178 -20.7601 -20.7087 -20.5435 -20.4786
   -20.4099 -20.4045 -20.3195 -20.2410  -8.7458  -8.7177  -8.6349  -8.6034
    -8.5689  -8.4921  -8.2022  -8.1756  -8.0930  -7.9629  -7.9362  -7.9120
    -6.5958  -6.2938  -6.0699  -5.8773  -5.8431  -5.3710  -4.9904  -4.9205
    -4.7654  -4.5240  -4.3769  -4.1277  -3.2816  -3.2241  -3.1551  -3.0811
    -3.0014  -2.9564  -2.9188  -2.8989  -2.8383  -2.7768  -2.7009  -2.6268

          k = 0.1498 0.2595 0.0000 ( 31780 PWs)   bands (ev):

   -21.1664 -20.9035 -20.8592 -20.7417 -20.7142 -20.6496 -20.5990 -20.5407
   -20.5041 -20.3780 -20.3474 -20.1696  -8.7950  -8.6839  -8.6287  -8.6165
    -8.5373  -8.5263  -8.2254  -8.1757  -8.0533  -8.0157  -7.9706  -7.9011
    -6.8643  -6.0809  -5.9948  -5.8105  -5.7098  -5.2847  -5.1345  -4.9862
    -4.9532  -4.5132  -4.4455  -3.9351  -3.1971  -3.1849  -3.1603  -3.0403
    -2.9806  -2.9552  -2.8622  -2.8560  -2.8303  -2.7943  -2.7000  -2.6891

          k = 0.2996-0.1730-1.2442 ( 31798 PWs)   bands (ev):

   -21.0589 -21.0368 -20.8725 -20.7807 -20.7164 -20.6661 -20.5584 -20.5232
   -20.4349 -20.4020 -20.2739 -20.2492  -8.7581  -8.7292  -8.6382  -8.6244
    -8.5120  -8.4981  -8.2787  -8.2131  -8.0659  -8.0083  -7.9252  -7.9050
    -6.4841  -6.4683  -6.0256  -5.9701  -5.6305  -5.3950  -5.0095  -4.8819
    -4.7033  -4.6869  -4.2863  -4.1273  -3.2053  -3.1712  -3.1687  -3.0840
    -2.9871  -2.9245  -2.9130  -2.8784  -2.8406  -2.8014  -2.6713  -2.6523

          k = 0.0000 0.0000 0.9332 ( 31815 PWs)   bands (ev):

   -20.9815 -20.9815 -20.9460 -20.8566 -20.7331 -20.7331 -20.4823 -20.4823
   -20.4012 -20.3287 -20.3287 -20.3233  -8.7234  -8.7234  -8.6680  -8.5549
    -8.5549  -8.5471  -8.2251  -8.1488  -8.1488  -7.9215  -7.9214  -7.8970
    -6.3732  -6.3732  -6.2961  -5.9706  -5.6120  -5.6120  -4.7921  -4.7921
    -4.7731  -4.4346  -4.4346  -4.3228  -3.2374  -3.2374  -3.1371  -3.0983
    -2.9726  -2.9726  -2.9341  -2.8842  -2.8842  -2.7445  -2.7445  -2.6040

          k = 0.4494 0.2595 0.0000 ( 31782 PWs)   bands (ev):

   -21.0858 -20.9531 -20.9506 -20.7793 -20.6812 -20.6603 -20.5682 -20.5491
   -20.4394 -20.3534 -20.3204 -20.2321  -8.7615  -8.7117  -8.6768  -8.5840
    -8.5432  -8.4835  -8.2892  -8.1794  -8.1138  -7.9619  -7.9408  -7.9097
    -6.5961  -6.2314  -6.1868  -5.9545  -5.6119  -5.3646  -5.0135  -4.9834
    -4.7188  -4.5089  -4.3993  -4.1004  -3.1903  -3.1854  -3.1653  -3.0880
    -3.0007  -2.9431  -2.8952  -2.8739  -2.8212  -2.7798  -2.7205  -2.6337

          k = 0.2996 0.1730 0.3111 ( 31777 PWs)   bands (ev):

   -21.1096 -20.9112 -20.8438 -20.8214 -20.7390 -20.7041 -20.5500 -20.5336
   -20.4587 -20.3789 -20.3225 -20.2055  -8.7630  -8.6951  -8.6510  -8.6004
    -8.5730  -8.4714  -8.2191  -8.1104  -8.0482  -8.0314  -7.9476  -7.9449
    -6.7047  -6.1609  -6.0564  -5.8612  -5.7518  -5.3682  -5.1196  -4.9699
    -4.8505  -4.4831  -4.3834  -4.0189  -3.2999  -3.2243  -3.1708  -3.0775
    -3.0140  -2.9709  -2.9132  -2.8708  -2.8064  -2.7621  -2.6976  -2.6583

          k = 0.4494-0.2595-0.9332 ( 31769 PWs)   bands (ev):

   -21.0078 -21.0018 -20.8947 -20.8388 -20.7357 -20.6809 -20.5777 -20.5151
   -20.3962 -20.3691 -20.3191 -20.2411  -8.7370  -8.7160  -8.6731  -8.5968
    -8.5597  -8.4429  -8.2617  -8.1298  -8.0543  -8.0332  -7.9454  -7.9334
    -6.4376  -6.3259  -6.0769  -6.0178  -5.7391  -5.3828  -5.1618  -4.9146
    -4.6158  -4.5118  -4.4103  -4.0788  -3.3058  -3.2338  -3.2009  -3.0828
    -3.0437  -3.0047  -2.8744  -2.8395  -2.8279  -2.7736  -2.6990  -2.6226

          k = 0.2996-0.3460-0.6221 ( 31772 PWs)   bands (ev):

   -20.9863 -20.9460 -20.8832 -20.8712 -20.7677 -20.7563 -20.5213 -20.5052
   -20.3936 -20.3797 -20.3167 -20.2558  -8.7412  -8.6713  -8.6491  -8.6197
    -8.5989  -8.4491  -8.1533  -8.1335  -8.0298  -8.0208  -7.9566  -7.9519
    -6.3921  -6.3119  -6.1014  -6.0634  -5.6593  -5.6276  -4.9911  -4.9311
    -4.6191  -4.5778  -4.3818  -4.0995  -3.3847  -3.2478  -3.2039  -3.1084
    -3.0729  -2.9646  -2.9122  -2.8725  -2.8577  -2.7290  -2.7076  -2.6097

          k = 0.0000 0.0000-1.8663 ( 31764 PWs)   bands (ev):

   -20.9580 -20.9088 -20.8810 -20.8810 -20.8131 -20.8131 -20.4664 -20.4664
   -20.4206 -20.4206 -20.3134 -20.2404  -8.7522  -8.6453  -8.6453  -8.6199
    -8.6199  -8.4168  -8.1728  -8.1552  -8.0029  -8.0029  -7.9872  -7.9872
    -6.2980  -6.2685  -5.9304  -5.9304  -5.9161  -5.9161  -4.8186  -4.8186
    -4.6898  -4.6898  -4.3520  -4.0521  -3.4053  -3.2416  -3.2416  -3.1365
    -3.1365  -2.9247  -2.9151  -2.8269  -2.8269  -2.7408  -2.7408  -2.5803

          k = 0.2996-0.3460 0.3111 ( 31781 PWs)   bands (ev):

   -21.0709 -20.9507 -20.8604 -20.8313 -20.7591 -20.7105 -20.5374 -20.4752
   -20.4437 -20.3701 -20.3283 -20.2407  -8.7532  -8.6988  -8.6445  -8.6214
    -8.5439  -8.5004  -8.2200  -8.1602  -8.0885  -7.9633  -7.9372  -7.9136
    -6.6009  -6.2485  -6.1507  -5.8946  -5.7380  -5.4186  -5.1047  -4.8073
    -4.6939  -4.5641  -4.4251  -4.1099  -3.2874  -3.2035  -3.1711  -3.0734
    -2.9975  -2.9665  -2.9188  -2.8978  -2.8575  -2.7518  -2.7019  -2.6327

     highest occupied level (ev):    -2.5803

!    total energy              =    -413.93380516 Ry
     estimated scf accuracy    <       0.00000008 Ry

     The total energy is the sum of the following terms:
     one-electron contribution =    -306.61140948 Ry
     hartree contribution      =     186.35115053 Ry
     xc contribution           =    -101.50918742 Ry
     ewald contribution        =    -192.16435879 Ry

     convergence has been achieved in   7 iterations

     Forces acting on atoms (cartesian axes, Ry/au):

     atom    1 type  2   force =    -0.00638882    0.00432903    0.00552291
     atom    2 type  2   force =     0.00638882   -0.00432903   -0.00552291
     atom    3 type  2   force =    -0.00055464   -0.00769740    0.00552291
     atom    4 type  2   force =     0.00055464    0.00769740   -0.00552291
     atom    5 type  2   force =     0.00694346    0.00336836    0.00552291
     atom    6 type  2   force =    -0.00694346   -0.00336836   -0.00552291
     atom    7 type  2   force =     0.00332525   -0.00686841    0.00165576
     atom    8 type  2   force =    -0.00332525    0.00686841   -0.00165576
     atom    9 type  2   force =     0.00428559    0.00631395    0.00165576
     atom   10 type  2   force =    -0.00428559   -0.00631395   -0.00165576
     atom   11 type  2   force =    -0.00761084    0.00055445    0.00165576
     atom   12 type  2   force =     0.00761084   -0.00055445   -0.00165576
     atom   13 type  1   force =    -0.00836476    0.00399833   -0.02479579
     atom   14 type  1   force =     0.00836476   -0.00399833    0.02479579
     atom   15 type  1   force =     0.00071973   -0.00924326   -0.02479579
     atom   16 type  1   force =    -0.00071973    0.00924326    0.02479579
     atom   17 type  1   force =     0.00764503    0.00524493   -0.02479579
     atom   18 type  1   force =    -0.00764503   -0.00524493    0.02479579
     atom   19 type  1   force =     0.01472994   -0.01233761    0.01367075
     atom   20 type  1   force =    -0.01472994    0.01233761   -0.01367075
     atom   21 type  1   force =     0.00331971    0.01892531    0.01367075
     atom   22 type  1   force =    -0.00331971   -0.01892531   -0.01367075
     atom   23 type  1   force =    -0.01804966   -0.00658770    0.01367075
     atom   24 type  1   force =     0.01804966    0.00658770   -0.01367075
     atom   25 type  1   force =     0.00399774    0.01079887    0.00370081
     atom   26 type  1   force =    -0.00399774   -0.01079887   -0.00370081
     atom   27 type  1   force =    -0.01135096   -0.00193728    0.00370081
     atom   28 type  1   force =     0.01135096    0.00193728   -0.00370081
     atom   29 type  1   force =     0.00735322   -0.00886158    0.00370081
     atom   30 type  1   force =    -0.00735322    0.00886158   -0.00370081
     atom   31 type  1   force =    -0.00071983   -0.00928344   -0.00140758
     atom   32 type  1   force =     0.00071983    0.00928344    0.00140758
     atom   33 type  1   force =     0.00839961    0.00401833   -0.00140758
     atom   34 type  1   force =    -0.00839961   -0.00401833    0.00140758
     atom   35 type  1   force =    -0.00767978    0.00526511   -0.00140758
     atom   36 type  1   force =     0.00767978   -0.00526511    0.00140758

     Total force =     0.099284     Total SCF correction =     0.000295


     Computing stress (Cartesian axis) and pressure

          total   stress  (Ry/bohr**3)                   (kbar)     P=       -2.46
  -0.00004951   0.00000000  -0.00000000           -7.28        0.00       -0.00
  -0.00000000  -0.00004951  -0.00000000           -0.00       -7.28       -0.00
  -0.00000000  -0.00000000   0.00004894           -0.00       -0.00        7.20

     Energy error            =      2.4E-02 Ry
     Gradient error          =      2.5E-02 Ry/Bohr

     number of scf cycles    =   3
     number of bfgs steps    =   2

     energy             old  =    -413.9101488244 Ry
     energy             new  =    -413.9338051565 Ry

     CASE: energy            _new < energy            _old

     new trust radius        =       0.0537813197 bohr
     new conv_thr            =       0.0000001000 Ry


ATOMIC_POSITIONS (crystal)
O                0.2734066856        0.0353328293        0.8600408527
O                0.7265933144        0.9646671817        0.1399591173
O                0.8600408527        0.2734066856        0.0353328293
O                0.1399591173        0.7265933144        0.9646671817
O                0.0353328293        0.8600408527        0.2734066856
O                0.9646671817        0.1399591173        0.7265933144
O                0.4716641803        0.7480955507        0.3305078676
O                0.5283358197        0.2519044493        0.6694921024
O                0.3305078676        0.4716641803        0.7480955507
O                0.6694921024        0.5283358197        0.2519044493
O                0.7480955507        0.3305078676        0.4716641803
O                0.2519044493        0.6694921024        0.5283358197
H                0.1540341339        0.0561105382        0.8000099936
H                0.8459658521        0.9438894538        0.1999900064
H                0.8000099936        0.1540341339        0.0561105382
H                0.1999900064        0.8459658521        0.9438894538
H                0.0561105382        0.8000099936        0.1540341339
H                0.9438894538        0.1999900064        0.8459658521
H                0.4216070439        0.2033781252        0.9992119002
H                0.5783929561        0.7966218898        0.0007880788
H                0.9992119002        0.4216070439        0.2033781252
H                0.0007880788        0.5783929561        0.7966218898
H                0.2033781252        0.9992119002        0.4216070439
H                0.7966218898        0.0007880788        0.5783929561
H                0.7207553730        0.4029536935        0.3981234592
H                0.2792446270        0.5970462765        0.6018765708
H                0.3981234592        0.7207553730        0.4029536935
H                0.6018765708        0.2792446270        0.5970462765
H                0.4029536935        0.3981234592        0.7207553730
H                0.5970462765        0.6018765708        0.2792446270
H                0.7418238210        0.2047926764        0.3655614143
H                0.2581761790        0.7952073086        0.6344385857
H                0.3655614143        0.7418238210        0.2047926764
H                0.6344385857        0.2581761790        0.7952073086
H                0.2047926764        0.3655614143        0.7418238210
H                0.7952073086        0.6344385857        0.2581761790



     Writing config-only to output data dir ./iceII/iceII.save/ :
     XML data file
     NEW-OLD atomic charge density approx. for the potential

     negative rho (up, down):  1.162E-06 0.000E+00

     total cpu time spent up to now is       35.8 secs

     per-process dynamical memory:    28.1 Mb

     Self-consistent Calculation

     iteration #  1     ecut=    90.00 Ry     beta= 0.70
     Davidson diagonalization with overlap
     ethr =  1.00E-06,  avg # of iterations =  6.2

     negative rho (up, down):  9.498E-07 0.000E+00

     total cpu time spent up to now is       37.3 secs

     total energy              =    -413.94672819 Ry
     estimated scf accuracy    <       0.00100241 Ry

     iteration #  2     ecut=    90.00 Ry     beta= 0.70
     Davidson diagonalization with overlap
     ethr =  1.04E-06,  avg # of iterations =  2.4

     negative rho (up, down):  9.466E-07 0.000E+00

     total cpu time spent up to now is       38.2 secs

     total energy              =    -413.94691810 Ry
     estimated scf accuracy    <       0.00015611 Ry

     iteration #  3     ecut=    90.00 Ry     beta= 0.70
     Davidson diagonalization with overlap
     ethr =  1.63E-07,  avg # of iterations =  2.4

     negative rho (up, down):  9.424E-07 0.000E+00

     total cpu time spent up to now is       39.1 secs

     total energy              =    -413.94695313 Ry
     estimated scf accuracy    <       0.00001301 Ry

     iteration #  4     ecut=    90.00 Ry     beta= 0.70
     Davidson diagonalization with overlap
     ethr =  1.35E-08,  avg # of iterations =  2.0

     negative rho (up, down):  9.362E-07 0.000E+00

     total cpu time spent up to now is       39.9 secs

     total energy              =    -413.94695426 Ry
     estimated scf accuracy    <       0.00000121 Ry

     iteration #  5     ecut=    90.00 Ry     beta= 0.70
     Davidson diagonalization with overlap
     ethr =  1.26E-09,  avg # of iterations =  3.2

     negative rho (up, down):  9.350E-07 0.000E+00

     total cpu time spent up to now is       40.9 secs

     End of self-consistent calculation

          k = 0.0000 0.0000 0.0000 ( 31795 PWs)   bands (ev):

   -21.1424 -20.7806 -20.7806 -20.5676 -20.5676 -20.5567 -20.5567 -20.5423
   -20.5286 -20.2711 -20.2711 -20.0417  -8.7970  -8.6420  -8.6172  -8.6172
    -8.5807  -8.5807  -8.2253  -8.2253  -8.1958  -8.1720  -8.1720  -8.0539
    -6.9237  -5.8701  -5.8701  -5.4531  -5.4531  -5.2565  -5.2565  -5.0331
    -4.9703  -4.3763  -4.3763  -3.7626  -3.1834  -3.1834  -3.1283  -2.9645
    -2.9645  -2.9353  -2.8343  -2.7822  -2.7711  -2.7711  -2.7314  -2.7314

          k =-0.1498-0.0865 0.3111 ( 31779 PWs)   bands (ev):

   -21.0830 -20.8084 -20.7800 -20.6849 -20.6578 -20.6138 -20.4974 -20.4558
   -20.4195 -20.2782 -20.2481 -20.0849  -8.7628  -8.6766  -8.6376  -8.6175
    -8.5710  -8.5207  -8.2635  -8.2354  -8.1910  -8.1290  -8.1068  -8.0864
    -6.7479  -6.0410  -5.9144  -5.6845  -5.5558  -5.2526  -5.0667  -4.9776
    -4.8096  -4.3760  -4.3093  -3.8953  -3.2630  -3.2102  -3.1286  -3.0123
    -3.0002  -2.9498  -2.9237  -2.8170  -2.7898  -2.7309  -2.7084  -2.6748

          k = 0.2996 0.1730-0.6221 ( 31820 PWs)   bands (ev):

   -20.9573 -20.8969 -20.8040 -20.7419 -20.6892 -20.6527 -20.4658 -20.4173
   -20.3366 -20.2684 -20.2215 -20.1655  -8.7077  -8.7001  -8.6482  -8.6272
    -8.5664  -8.5008  -8.2575  -8.2389  -8.1790  -8.1578  -8.0703  -8.0575
    -6.3811  -6.3197  -5.9642  -5.9429  -5.4904  -5.4553  -4.9338  -4.8594
    -4.4973  -4.4555  -4.2667  -4.1118  -3.3336  -3.2256  -3.1345  -3.0561
    -3.0221  -3.0100  -2.9079  -2.8864  -2.8230  -2.7197  -2.6640  -2.6341

          k =-0.1498 0.0865 0.6221 ( 31790 PWs)   bands (ev):

   -20.9705 -20.8504 -20.8356 -20.7368 -20.7011 -20.6584 -20.4538 -20.3979
   -20.3552 -20.2605 -20.2410 -20.1561  -8.7126  -8.6818  -8.6761  -8.6098
    -8.5688  -8.4993  -8.2535  -8.2446  -8.2070  -8.1079  -8.0860  -8.0640
    -6.4326  -6.1839  -6.1505  -5.7560  -5.6110  -5.4503  -4.9375  -4.7292
    -4.6582  -4.3584  -4.2968  -4.1176  -3.3180  -3.2502  -3.1272  -3.0481
    -3.0307  -2.9758  -2.9507  -2.8568  -2.8342  -2.7190  -2.6775  -2.6237

          k = 0.2996 0.3460-0.3111 ( 31781 PWs)   bands (ev):

   -21.0055 -20.8780 -20.8216 -20.7302 -20.6713 -20.6304 -20.4656 -20.4062
   -20.3362 -20.3010 -20.2228 -20.1429  -8.7324  -8.7079  -8.6293  -8.6067
    -8.5766  -8.4972  -8.3255  -8.3020  -8.2310  -8.0936  -8.0709  -8.0452
    -6.4965  -6.1748  -5.9812  -5.8138  -5.7477  -5.2830  -4.8606  -4.7690
    -4.7006  -4.4224  -4.2921  -4.0535  -3.2601  -3.2081  -3.1401  -3.0678
    -2.9828  -2.9342  -2.9075  -2.8823  -2.8274  -2.7617  -2.6725  -2.6083

          k = 0.1498 0.2595 0.0000 ( 31780 PWs)   bands (ev):

   -21.0987 -20.8403 -20.7961 -20.6604 -20.6300 -20.5610 -20.5261 -20.4595
   -20.4280 -20.2814 -20.2488 -20.0763  -8.7778  -8.6785  -8.6368  -8.6106
    -8.5479  -8.5405  -8.3404  -8.2866  -8.1962  -8.1426  -8.1003  -8.0475
    -6.7646  -5.9496  -5.9060  -5.7205  -5.6362  -5.1785  -5.0274  -4.8784
    -4.8605  -4.4196  -4.3597  -3.8437  -3.1834  -3.1702  -3.1476  -3.0273
    -2.9649  -2.9308  -2.8549  -2.8352  -2.8120  -2.7736  -2.6778  -2.6668

          k = 0.2996-0.1730-1.2442 ( 31798 PWs)   bands (ev):

   -20.9891 -20.9731 -20.8094 -20.6993 -20.6364 -20.5747 -20.4916 -20.4394
   -20.3603 -20.3009 -20.1836 -20.1484  -8.7429  -8.7150  -8.6403  -8.6147
    -8.5192  -8.5055  -8.4079  -8.3396  -8.2104  -8.1313  -8.0638  -8.0398
    -6.3744  -6.3709  -5.9212  -5.8942  -5.5374  -5.2828  -4.8841  -4.8023
    -4.6353  -4.5600  -4.1980  -4.0417  -3.1905  -3.1574  -3.1537  -3.0727
    -2.9682  -2.8970  -2.8950  -2.8735  -2.8261  -2.7825  -2.6484  -2.6284

          k = 0.0000 0.0000 0.9332 ( 31815 PWs)   bands (ev):

   -20.9122 -20.9122 -20.8990 -20.7531 -20.6561 -20.6561 -20.4003 -20.4003
   -20.3440 -20.2350 -20.2350 -20.2081  -8.7119  -8.7119  -8.6573  -8.5649
    -8.5574  -8.5574  -8.3506  -8.2808  -8.2808  -8.0524  -8.0524  -8.0312
    -6.2743  -6.2743  -6.1340  -5.9610  -5.5230  -5.5230  -4.6751  -4.6751
    -4.5832  -4.3613  -4.3613  -4.2791  -3.2181  -3.2181  -3.1219  -3.0907
    -2.9503  -2.9503  -2.9138  -2.8770  -2.8770  -2.7199  -2.7199  -2.5859

          k = 0.4494 0.2595 0.0000 ( 31782 PWs)   bands (ev):

   -21.0182 -20.8909 -20.8825 -20.6895 -20.6134 -20.5780 -20.4879 -20.4592
   -20.3698 -20.2592 -20.2223 -20.1353  -8.7451  -8.6996  -8.6692  -8.5837
    -8.5515  -8.4892  -8.4174  -8.3061  -8.2530  -8.0963  -8.0692  -8.0494
    -6.4944  -6.1121  -6.0878  -5.8961  -5.5041  -5.2484  -4.9242  -4.8931
    -4.5915  -4.4217  -4.3165  -4.0131  -3.1743  -3.1707  -3.1523  -3.0761
    -2.9828  -2.9234  -2.8792  -2.8611  -2.8026  -2.7616  -2.7004  -2.6084

          k = 0.2996 0.1730 0.3111 ( 31777 PWs)   bands (ev):

   -21.0429 -20.8481 -20.7875 -20.7348 -20.6511 -20.6193 -20.4781 -20.4568
   -20.3645 -20.2947 -20.2249 -20.1090  -8.7473  -8.6899  -8.6495  -8.5940
    -8.5827  -8.4792  -8.3382  -8.2290  -8.1833  -8.1724  -8.0866  -8.0748
    -6.6081  -6.0608  -5.9753  -5.7179  -5.6976  -5.2802  -4.9724  -4.8714
    -4.7771  -4.3746  -4.2973  -3.9364  -3.2782  -3.2068  -3.1551  -3.0599
    -3.0000  -2.9534  -2.8978  -2.8533  -2.7968  -2.7460  -2.6827  -2.6286

          k = 0.4494-0.2595-0.9332 ( 31769 PWs)   bands (ev):

   -20.9459 -20.9333 -20.8317 -20.7516 -20.6544 -20.6011 -20.4967 -20.4357
   -20.3017 -20.2946 -20.2276 -20.1370  -8.7209  -8.7045  -8.6659  -8.5936
    -8.5615  -8.4434  -8.3889  -8.2657  -8.1974  -8.1644  -8.0824  -8.0656
    -6.3439  -6.2284  -6.0008  -5.9213  -5.6200  -5.2597  -5.0641  -4.8349
    -4.5338  -4.3855  -4.3236  -3.9988  -3.2828  -3.2144  -3.1818  -3.0659
    -3.0250  -2.9921  -2.8627  -2.8265  -2.8171  -2.7602  -2.6816  -2.5918

          k = 0.2996-0.3460-0.6221 ( 31772 PWs)   bands (ev):

   -20.9338 -20.8684 -20.8227 -20.7880 -20.6853 -20.6680 -20.4494 -20.4241
   -20.3048 -20.2822 -20.2441 -20.1459  -8.7260  -8.6639  -8.6418  -8.6224
    -8.6005  -8.4501  -8.2783  -8.2672  -8.1665  -8.1521  -8.0909  -8.0847
    -6.2740  -6.2521  -6.0034  -5.9728  -5.5646  -5.5302  -4.8611  -4.8125
    -4.5336  -4.5059  -4.2464  -4.0504  -3.3517  -3.2287  -3.1853  -3.0897
    -3.0527  -2.9579  -2.8952  -2.8611  -2.8446  -2.7173  -2.6924  -2.5813

          k = 0.0000 0.0000-1.8663 ( 31764 PWs)   bands (ev):

   -20.9075 -20.8279 -20.8279 -20.8097 -20.7183 -20.7183 -20.4005 -20.4005
   -20.3133 -20.3133 -20.2496 -20.1296  -8.7321  -8.6373  -8.6373  -8.6176
    -8.6176  -8.4124  -8.2986  -8.2936  -8.1430  -8.1430  -8.1218  -8.1218
    -6.2508  -6.1602  -5.8756  -5.8756  -5.7546  -5.7546  -4.6711  -4.6711
    -4.6569  -4.6569  -4.2036  -4.0043  -3.3635  -3.2217  -3.2217  -3.1183
    -3.1183  -2.9241  -2.8950  -2.8181  -2.8181  -2.7268  -2.7268  -2.5490

          k = 0.2996-0.3460 0.3111 ( 31781 PWs)   bands (ev):

   -21.0042 -20.8890 -20.8031 -20.7372 -20.6739 -20.6327 -20.4534 -20.4105
   -20.3572 -20.2753 -20.2332 -20.1420  -8.7378  -8.6934  -8.6409  -8.6164
    -8.5545  -8.5069  -8.3444  -8.2862  -8.2260  -8.0910  -8.0733  -8.0475
    -6.4979  -6.1686  -6.0159  -5.7943  -5.7018  -5.3278  -4.9521  -4.6860
    -4.6092  -4.4620  -4.3458  -4.0339  -3.2662  -3.1864  -3.1557  -3.0618
    -2.9790  -2.9446  -2.9065  -2.8779  -2.8492  -2.7381  -2.6734  -2.6136

     highest occupied level (ev):    -2.5490

!    total energy              =    -413.94695458 Ry
     estimated scf accuracy    <       0.00000007 Ry

     The total energy is the sum of the following terms:
     one-electron contribution =    -305.23017698 Ry
     hartree contribution      =     185.71996111 Ry
     xc contribution           =    -101.42462693 Ry
     ewald contribution        =    -193.01211178 Ry

     convergence has been achieved in   5 iterations

     Forces acting on atoms (cartesian axes, Ry/au):

     atom    1 type  2   force =    -0.00386400   -0.00049713   -0.00014743
     atom    2 type  2   force =     0.00386400    0.00049713    0.00014743
     atom    3 type  2   force =     0.00236253   -0.00309776   -0.00014743
     atom    4 type  2   force =    -0.00236253    0.00309776    0.00014743
     atom    5 type  2   force =     0.00150147    0.00359489   -0.00014743
     atom    6 type  2   force =    -0.00150147   -0.00359489    0.00014743
     atom    7 type  2   force =    -0.00127622   -0.00332930   -0.00220810
     atom    8 type  2   force =     0.00127622    0.00332930    0.00220810
     atom    9 type  2   force =     0.00352136    0.00055941   -0.00220810
     atom   10 type  2   force =    -0.00352136   -0.00055941    0.00220810
     atom   11 type  2   force =    -0.00224515    0.00276988   -0.00220810
     atom   12 type  2   force =     0.00224515   -0.00276988    0.00220810
     atom   13 type  1   force =    -0.00506231   -0.00095455   -0.00860404
     atom   14 type  1   force =     0.00506231    0.00095455    0.00860404
     atom   15 type  1   force =     0.00335782   -0.00390681   -0.00860404
     atom   16 type  1   force =    -0.00335782    0.00390681    0.00860404
     atom   17 type  1   force =     0.00170449    0.00486136   -0.00860404
     atom   18 type  1   force =    -0.00170449   -0.00486136    0.00860404
     atom   19 type  1   force =     0.00855356   -0.00183557    0.00403790
     atom   20 type  1   force =    -0.00855356    0.00183557   -0.00403790
     atom   21 type  1   force =    -0.00268713    0.00832539    0.00403790
     atom   22 type  1   force =     0.00268713   -0.00832539   -0.00403790
     atom   23 type  1   force =    -0.00586643   -0.00648982    0.00403790
     atom   24 type  1   force =     0.00586643    0.00648982   -0.00403790
     atom   25 type  1   force =     0.00232969    0.00154792    0.00355967
     atom   26 type  1   force =    -0.00232969   -0.00154792   -0.00355967
     atom   27 type  1   force =    -0.00250538    0.00124362    0.00355967
     atom   28 type  1   force =     0.00250538   -0.00124362   -0.00355967
     atom   29 type  1   force =     0.00017569   -0.00279153    0.00355967
     atom   30 type  1   force =    -0.00017569    0.00279153   -0.00355967
     atom   31 type  1   force =    -0.00400818   -0.00301501    0.00165144
     atom   32 type  1   force =     0.00400818    0.00301501   -0.00165144
     atom   33 type  1   force =     0.00461516   -0.00196368    0.00165144
     atom   34 type  1   force =    -0.00461516    0.00196368   -0.00165144
     atom   35 type  1   force =    -0.00060699    0.00497869    0.00165144
     atom   36 type  1   force =     0.00060699   -0.00497869   -0.00165144

     Total force =     0.040588     Total SCF correction =     0.000282


     Computing stress (Cartesian axis) and pressure

          total   stress  (Ry/bohr**3)                   (kbar)     P=      -11.93
  -0.00010972   0.00000000   0.00000000          -16.14        0.00        0.00
  -0.00000000  -0.00010972  -0.00000000           -0.00      -16.14       -0.00
  -0.00000000  -0.00000000  -0.00002383           -0.00       -0.00       -3.50

     Energy error            =      1.3E-02 Ry
     Gradient error          =      8.6E-03 Ry/Bohr

     number of scf cycles    =   4
     number of bfgs steps    =   3

     energy             old  =    -413.9338051565 Ry
     energy             new  =    -413.9469545801 Ry

     CASE: energy            _new < energy            _old

     new trust radius        =       0.0342355965 bohr
     new conv_thr            =       0.0000000860 Ry


ATOMIC_POSITIONS (crystal)
O                0.2732033931        0.0361242988        0.8608241191
O                0.7267966069        0.9638757122        0.1391758509
O                0.8608241191        0.2732033931        0.0361242988
O                0.1391758509        0.7267966069        0.9638757122
O                0.0361242988        0.8608241191        0.2732033931
O                0.9638757122        0.1391758509        0.7267966069
O                0.4711720463        0.7474011576        0.3304039166
O                0.5288279537        0.2525988424        0.6695960534
O                0.3304039166        0.4711720463        0.7474011576
O                0.6695960534        0.5288279537        0.2525988424
O                0.7474011576        0.3304039166        0.4711720463
O                0.2525988424        0.6695960534        0.5288279537
H                0.1509273214        0.0534237540        0.7978668023
H                0.8490726646        0.9465762380        0.2021331977
H                0.7978668023        0.1509273214        0.0534237540
H                0.2021331977        0.8490726646        0.9465762380
H                0.0534237540        0.7978668023        0.1509273214
H                0.9465762380        0.2021331977        0.8490726646
H                0.4241576508        0.2040119253        0.9998696402
H                0.5758423492        0.7959880897        0.0001303388
H                0.9998696402        0.4241576508        0.2040119253
H                0.0001303388        0.5758423492        0.7959880897
H                0.2040119253        0.9998696402        0.4241576508
H                0.7959880897        0.0001303388        0.5758423492
H                0.7214745279        0.4039300767        0.3985444055
H                0.2785254721        0.5960698933        0.6014556245
H                0.3985444055        0.7214745279        0.4039300767
H                0.6014556245        0.2785254721        0.5960698933
H                0.4039300767        0.3985444055        0.7214745279
H                0.5960698933        0.6014556245        0.2785254721
H                0.7419721286        0.2046853236        0.3665109978
H                0.2580278714        0.7953146614        0.6334890022
H                0.3665109978        0.7419721286        0.2046853236
H                0.6334890022        0.2580278714        0.7953146614
H                0.2046853236        0.3665109978        0.7419721286
H                0.7953146614        0.6334890022        0.2580278714



     Writing config-only to output data dir ./iceII/iceII.save/ :
     XML data file
     NEW-OLD atomic charge density approx. for the potential

     negative rho (up, down):  9.737E-07 0.000E+00

     total cpu time spent up to now is       42.1 secs

     per-process dynamical memory:    28.1 Mb

     Self-consistent Calculation

     iteration #  1     ecut=    90.00 Ry     beta= 0.70
     Davidson diagonalization with overlap
     ethr =  1.00E-06,  avg # of iterations =  5.0

     negative rho (up, down):  7.768E-07 0.000E+00

     total cpu time spent up to now is       43.4 secs

     total energy              =    -413.94967031 Ry
     estimated scf accuracy    <       0.00036968 Ry

     iteration #  2     ecut=    90.00 Ry     beta= 0.70
     Davidson diagonalization with overlap
     ethr =  3.85E-07,  avg # of iterations =  2.0

     negative rho (up, down):  7.867E-07 0.000E+00

     total cpu time spent up to now is       44.2 secs

     total energy              =    -413.94973898 Ry
     estimated scf accuracy    <       0.00002647 Ry

     iteration #  3     ecut=    90.00 Ry     beta= 0.70
     Davidson diagonalization with overlap
     ethr =  2.76E-08,  avg # of iterations =  2.0

     negative rho (up, down):  7.883E-07 0.000E+00

     total cpu time spent up to now is       45.0 secs

     total energy              =    -413.94974345 Ry
     estimated scf accuracy    <       0.00000223 Ry

     iteration #  4     ecut=    90.00 Ry     beta= 0.70
     Davidson diagonalization with overlap
     ethr =  2.32E-09,  avg # of iterations =  3.0

     negative rho (up, down):  7.877E-07 0.000E+00

     total cpu time spent up to now is       46.0 secs

     total energy              =    -413.94974403 Ry
     estimated scf accuracy    <       0.00000028 Ry

     iteration #  5     ecut=    90.00 Ry     beta= 0.70
     Davidson diagonalization with overlap
     ethr =  2.93E-10,  avg # of iterations =  3.1

     negative rho (up, down):  7.867E-07 0.000E+00

     total cpu time spent up to now is       46.9 secs

     End of self-consistent calculation

          k = 0.0000 0.0000 0.0000 ( 31795 PWs)   bands (ev):

   -21.1192 -20.7722 -20.7722 -20.5526 -20.5526 -20.4996 -20.4944 -20.4900
   -20.4900 -20.2035 -20.2035 -19.9849  -8.8216  -8.6871  -8.6567  -8.6567
    -8.6164  -8.6164  -8.2784  -8.2784  -8.2492  -8.2287  -8.2287  -8.1185
[...]
O                0.2488339300        0.6623853491        0.5139375822
H                0.1447046434        0.0375515859        0.7962698925
H                0.8552953426        0.9624484061        0.2037301075
H                0.7962698925        0.1447046434        0.0375515859
H                0.2037301075        0.8552953426        0.9624484061
H                0.0375515859        0.7962698925        0.1447046434
H                0.9624484061        0.2037301075        0.8552953426
H                0.4177764949        0.1853330073        0.9857543537
H                0.5822235051        0.8146670077        0.0142456253
H                0.9857543537        0.4177764949        0.1853330073
H                0.0142456253        0.5822235051        0.8146670077
H                0.1853330073        0.9857543537        0.4177764949
H                0.8146670077        0.0142456253        0.5822235051
H                0.7290819474        0.4120896966        0.4129583508
H                0.2709180526        0.5879102734        0.5870416792
H                0.4129583508        0.7290819474        0.4120896966
H                0.5870416792        0.2709180526        0.5879102734
H                0.4120896966        0.4129583508        0.7290819474
H                0.5879102734        0.5870416792        0.2709180526
H                0.7467497397        0.2126091735        0.3820320752
H                0.2532502603        0.7873908115        0.6179679248
H                0.3820320752        0.7467497397        0.2126091735
H                0.6179679248        0.2532502603        0.7873908115
H                0.2126091735        0.3820320752        0.7467497397
H                0.7873908115        0.6179679248        0.2532502603



     Writing config-only to output data dir ./iceII/iceII.save/ :
     XML data file
     NEW-OLD atomic charge density approx. for the potential

     negative rho (up, down):  6.324E-07 0.000E+00

     total cpu time spent up to now is      363.1 secs

     per-process dynamical memory:    32.2 Mb

     Self-consistent Calculation

     iteration #  1     ecut=    90.00 Ry     beta= 0.70
     Davidson diagonalization with overlap
     ethr =  1.00E-06,  avg # of iterations =  2.0

     Threshold (ethr) on eigenvalues was too large:
     Diagonalizing with lowered threshold

     Davidson diagonalization with overlap
     ethr =  3.42E-10,  avg # of iterations =  5.0

     negative rho (up, down):  6.366E-07 0.000E+00

     total cpu time spent up to now is      365.2 secs

     total energy              =    -413.95834594 Ry
     estimated scf accuracy    <       0.00000055 Ry

     iteration #  2     ecut=    90.00 Ry     beta= 0.70
     Davidson diagonalization with overlap
     ethr =  5.76E-10,  avg # of iterations =  2.0

     negative rho (up, down):  6.380E-07 0.000E+00

     total cpu time spent up to now is      366.0 secs

     total energy              =    -413.95834602 Ry
     estimated scf accuracy    <       0.00000003 Ry

     iteration #  3     ecut=    90.00 Ry     beta= 0.70
     Davidson diagonalization with overlap
     ethr =  2.92E-11,  avg # of iterations =  2.5

     negative rho (up, down):  6.382E-07 0.000E+00

     total cpu time spent up to now is      366.8 secs

     total energy              =    -413.95834602 Ry
     estimated scf accuracy    <          3.9E-09 Ry

     iteration #  4     ecut=    90.00 Ry     beta= 0.70
     Davidson diagonalization with overlap
     ethr =  4.10E-12,  avg # of iterations =  2.7

     negative rho (up, down):  6.383E-07 0.000E+00

     total cpu time spent up to now is      367.7 secs

     End of self-consistent calculation

          k = 0.0000 0.0000 0.0000 ( 31795 PWs)   bands (ev):

   -21.1151 -20.7614 -20.7614 -20.5470 -20.5277 -20.5277 -20.5158 -20.5158
   -20.4728 -20.2227 -20.2227 -19.9702  -8.7127  -8.6046  -8.5447  -8.5447
    -8.5271  -8.5271  -8.2439  -8.2439  -8.1953  -8.1953  -8.1781  -8.1402
    -6.8574  -5.8690  -5.8690  -5.4323  -5.4323  -5.1685  -5.1444  -5.1444
    -4.8879  -4.3305  -4.3305  -3.6464  -3.1615  -3.1615  -3.0618  -2.9619
    -2.9619  -2.9191  -2.8621  -2.8019  -2.8016  -2.8016  -2.7550  -2.7550

          k =-0.1498-0.0865 0.3111 ( 31779 PWs)   bands (ev):

   -21.0577 -20.7841 -20.7621 -20.6496 -20.6309 -20.5805 -20.4676 -20.4129
   -20.3767 -20.2296 -20.1996 -20.0141  -8.6853  -8.6110  -8.5823  -8.5641
    -8.5185  -8.4748  -8.2729  -8.2461  -8.2047  -8.1574  -8.1321  -8.1208
    -6.6951  -6.0240  -5.8935  -5.6595  -5.5349  -5.3021  -4.9629  -4.9439
    -4.7253  -4.3421  -4.2725  -3.7849  -3.2275  -3.1788  -3.0782  -3.0202
    -3.0077  -2.9568  -2.9104  -2.8278  -2.8125  -2.7750  -2.7267  -2.7208

          k = 0.2996 0.1730-0.6221 ( 31820 PWs)   bands (ev):

   -20.9403 -20.8697 -20.7791 -20.6976 -20.6713 -20.6187 -20.4358 -20.3713
   -20.3098 -20.2160 -20.1697 -20.0911  -8.6398  -8.6278  -8.5953  -8.5791
    -8.5246  -8.4547  -8.2634  -8.2447  -8.2128  -8.1730  -8.0880  -8.0752
    -6.3459  -6.2901  -5.9511  -5.8882  -5.4934  -5.4869  -4.8252  -4.8151
    -4.4252  -4.4069  -4.2275  -4.0333  -3.2890  -3.1930  -3.0934  -3.0841
    -3.0363  -2.9584  -2.9368  -2.8935  -2.8211  -2.7693  -2.6980  -2.6840

          k =-0.1498 0.0865 0.6221 ( 31790 PWs)   bands (ev):

   -20.9527 -20.8206 -20.8093 -20.7124 -20.6676 -20.6240 -20.4220 -20.3640
   -20.3137 -20.2114 -20.1904 -20.0824  -8.6405  -8.6149  -8.6110  -8.5829
    -8.5139  -8.4555  -8.2613  -8.2485  -8.2340  -8.1344  -8.1031  -8.0785
    -6.4003  -6.1490  -6.1089  -5.7334  -5.6389  -5.4450  -4.8752  -4.6395
    -4.5935  -4.3270  -4.2423  -4.0395  -3.2796  -3.2062  -3.1062  -3.0603
    -3.0048  -2.9955  -2.9479  -2.8654  -2.8368  -2.7630  -2.7178  -2.6688

          k = 0.2996 0.3460-0.3111 ( 31781 PWs)   bands (ev):

   -20.9796 -20.8531 -20.7995 -20.7068 -20.6354 -20.5915 -20.4434 -20.3757
   -20.2967 -20.2421 -20.1675 -20.0738  -8.6544  -8.6356  -8.5758  -8.5555
    -8.5232  -8.4588  -8.3182  -8.2999  -8.2393  -8.1266  -8.1217  -8.0822
    -6.4523  -6.1345  -5.9869  -5.7933  -5.7121  -5.2652  -4.8647  -4.6907
    -4.6352  -4.3526  -4.2467  -3.9721  -3.2278  -3.1639  -3.1129  -3.0460
    -2.9949  -2.9362  -2.9139  -2.9024  -2.8360  -2.8037  -2.6914  -2.6569

          k = 0.1498 0.2595 0.0000 ( 31780 PWs)   bands (ev):

   -21.0710 -20.8174 -20.7734 -20.6387 -20.5904 -20.5281 -20.4943 -20.4377
   -20.3765 -20.2296 -20.1958 -20.0073  -8.6925  -8.6156  -8.5643  -8.5592
    -8.4979  -8.4949  -8.3245  -8.2900  -8.2041  -8.1777  -8.1397  -8.1227
    -6.7079  -5.9250  -5.9147  -5.6863  -5.6043  -5.1230  -5.0285  -4.8841
    -4.7671  -4.3597  -4.3144  -3.7424  -3.1617  -3.1452  -3.0893  -3.0050
    -2.9597  -2.9300  -2.8877  -2.8600  -2.8422  -2.7967  -2.7023  -2.6899

          k = 0.2996-0.1730-1.2442 ( 31798 PWs)   bands (ev):

   -20.9538 -20.9534 -20.7834 -20.6842 -20.5949 -20.5479 -20.4528 -20.4267
   -20.3084 -20.2437 -20.1328 -20.0777  -8.6577  -8.6389  -8.5667  -8.5659
    -8.4802  -8.4691  -8.3788  -8.3317  -8.2178  -8.1719  -8.1276  -8.1011
    -6.3490  -6.3102  -5.9105  -5.8766  -5.5241  -5.2357  -4.8633  -4.8009
    -4.5811  -4.4552  -4.1427  -3.9677  -3.1592  -3.1278  -3.1104  -3.0412
    -2.9533  -2.9283  -2.9240  -2.8816  -2.8683  -2.8000  -2.6747  -2.6496

          k = 0.0000 0.0000 0.9332 ( 31815 PWs)   bands (ev):

   -20.8900 -20.8779 -20.8779 -20.7348 -20.6188 -20.6188 -20.3789 -20.3789
   -20.2972 -20.1813 -20.1813 -20.1293  -8.6375  -8.6375  -8.6010  -8.5437
    -8.4990  -8.4990  -8.3439  -8.2781  -8.2781  -8.0983  -8.0983  -8.0688
    -6.2150  -6.2150  -6.1104  -5.9876  -5.5109  -5.5109  -4.6543  -4.6543
    -4.4523  -4.3122  -4.3122  -4.1998  -3.1799  -3.1799  -3.1047  -3.0602
    -2.9656  -2.9656  -2.9114  -2.8897  -2.8897  -2.7441  -2.7441  -2.6411

          k = 0.4494 0.2595 0.0000 ( 31782 PWs)   bands (ev):

   -20.9901 -20.8695 -20.8495 -20.6752 -20.5801 -20.5399 -20.4642 -20.4306
   -20.3189 -20.2072 -20.1670 -20.0673  -8.6607  -8.6255  -8.5987  -8.5302
    -8.5021  -8.4626  -8.3905  -8.3010  -8.2536  -8.1459  -8.1202  -8.1159
    -6.4487  -6.0781  -6.0407  -5.9069  -5.4904  -5.2151  -4.9330  -4.8265
    -4.5050  -4.3692  -4.2691  -3.9343  -3.1539  -3.1276  -3.1106  -3.0344
    -2.9907  -2.9422  -2.9075  -2.8947  -2.8236  -2.7807  -2.7187  -2.6338

          k = 0.2996 0.1730 0.3111 ( 31777 PWs)   bands (ev):

   -21.0176 -20.8241 -20.7661 -20.7058 -20.6187 -20.5864 -20.4432 -20.4280
   -20.3147 -20.2475 -20.1738 -20.0392  -8.6684  -8.6156  -8.5913  -8.5394
    -8.5321  -8.4437  -8.3271  -8.2391  -8.2115  -8.1875  -8.1383  -8.1052
    -6.5650  -6.0514  -5.9636  -5.7022  -5.6334  -5.2836  -4.9163  -4.8097
    -4.7392  -4.3138  -4.2518  -3.8497  -3.2507  -3.1550  -3.1078  -3.0669
    -3.0119  -2.9542  -2.8966  -2.8674  -2.8279  -2.7834  -2.7258  -2.6458

          k = 0.4494-0.2595-0.9332 ( 31769 PWs)   bands (ev):

   -20.9280 -20.9003 -20.8034 -20.7298 -20.6240 -20.5685 -20.4652 -20.4009
   -20.2567 -20.2438 -20.1770 -20.0670  -8.6409  -8.6258  -8.5971  -8.5411
    -8.5154  -8.4176  -8.3645  -8.2744  -8.2138  -8.1960  -8.1320  -8.1084
    -6.3389  -6.1690  -6.0153  -5.8752  -5.5792  -5.2331  -5.0237  -4.7760
    -4.5090  -4.2909  -4.2689  -3.9467  -3.2567  -3.1571  -3.1324  -3.0720
    -3.0407  -2.9812  -2.8914  -2.8506  -2.8285  -2.7981  -2.7217  -2.6065

          k = 0.2996-0.3460-0.6221 ( 31772 PWs)   bands (ev):

   -20.9181 -20.8410 -20.7978 -20.7573 -20.6510 -20.6329 -20.4202 -20.3910
   -20.2607 -20.2285 -20.1970 -20.0746  -8.6429  -8.6013  -8.5832  -8.5721
    -8.5483  -8.4224  -8.2831  -8.2613  -8.2054  -8.1789  -8.1117  -8.1020
    -6.2827  -6.2265  -5.9720  -5.9219  -5.5348  -5.4971  -4.8266  -4.7674
    -4.4738  -4.4436  -4.1485  -4.0217  -3.3135  -3.1794  -3.1356  -3.1087
    -3.0503  -2.9950  -2.8854  -2.8687  -2.8363  -2.7709  -2.7489  -2.6073

          k = 0.0000 0.0000-1.8663 ( 31764 PWs)   bands (ev):

   -20.8943 -20.8025 -20.8025 -20.7796 -20.6821 -20.6821 -20.3715 -20.3715
   -20.2562 -20.2562 -20.2122 -20.0592  -8.6409  -8.5713  -8.5713  -8.5661
    -8.5661  -8.4027  -8.3020  -8.2741  -8.1879  -8.1879  -8.1376  -8.1376
    -6.3029  -6.1315  -5.8358  -5.8358  -5.6892  -5.6892  -4.6586  -4.6586
    -4.5775  -4.5775  -4.0872  -4.0010  -3.3158  -3.1637  -3.1637  -3.1398
    -3.1398  -2.9754  -2.8357  -2.8208  -2.8208  -2.8003  -2.8003  -2.5684

          k = 0.2996-0.3460 0.3111 ( 31781 PWs)   bands (ev):

   -20.9784 -20.8637 -20.7810 -20.7165 -20.6358 -20.5925 -20.4361 -20.3773
   -20.3129 -20.2163 -20.1819 -20.0726  -8.6609  -8.6208  -8.5791  -8.5624
    -8.5224  -8.4577  -8.3273  -8.2928  -8.2364  -8.1328  -8.1115  -8.0871
    -6.4531  -6.1462  -5.9872  -5.7650  -5.6978  -5.3108  -4.9152  -4.6327
    -4.5572  -4.3966  -4.2904  -3.9542  -3.2340  -3.1412  -3.1246  -3.0485
    -2.9907  -2.9446  -2.9151  -2.8854  -2.8703  -2.7795  -2.6948  -2.6573

     highest occupied level (ev):    -2.5684

!    total energy              =    -413.95834602 Ry
     estimated scf accuracy    <          3.3E-10 Ry

     The total energy is the sum of the following terms:
     one-electron contribution =    -302.79014474 Ry
     hartree contribution      =     184.56332490 Ry
     xc contribution           =    -101.39686408 Ry
     ewald contribution        =    -194.33466211 Ry

     convergence has been achieved in   4 iterations

     Forces acting on atoms (cartesian axes, Ry/au):

     atom    1 type  2   force =    -0.00004658   -0.00003148    0.00005788
     atom    2 type  2   force =     0.00004658    0.00003148   -0.00005788
     atom    3 type  2   force =     0.00005055   -0.00002460    0.00005788
     atom    4 type  2   force =    -0.00005055    0.00002460   -0.00005788
     atom    5 type  2   force =    -0.00000397    0.00005608    0.00005788
     atom    6 type  2   force =     0.00000397   -0.00005608   -0.00005788
     atom    7 type  2   force =     0.00000659   -0.00003586   -0.00004068
     atom    8 type  2   force =    -0.00000659    0.00003586    0.00004068
     atom    9 type  2   force =     0.00002776    0.00002363   -0.00004068
     atom   10 type  2   force =    -0.00002776   -0.00002363    0.00004068
     atom   11 type  2   force =    -0.00003435    0.00001222   -0.00004068
     atom   12 type  2   force =     0.00003435   -0.00001222    0.00004068
     atom   13 type  1   force =    -0.00001453   -0.00009697    0.00001345
     atom   14 type  1   force =     0.00001453    0.00009697   -0.00001345
     atom   15 type  1   force =     0.00009124    0.00003590    0.00001345
     atom   16 type  1   force =    -0.00009124   -0.00003590   -0.00001345
     atom   17 type  1   force =    -0.00007671    0.00006107    0.00001345
     atom   18 type  1   force =     0.00007671   -0.00006107   -0.00001345
     atom   19 type  1   force =    -0.00006301    0.00007514    0.00005445
     atom   20 type  1   force =     0.00006301   -0.00007514   -0.00005445
     atom   21 type  1   force =    -0.00003357   -0.00009213    0.00005445
     atom   22 type  1   force =     0.00003357    0.00009213   -0.00005445
     atom   23 type  1   force =     0.00009657    0.00001700    0.00005445
     atom   24 type  1   force =    -0.00009657   -0.00001700   -0.00005445
     atom   25 type  1   force =    -0.00009864    0.00001168   -0.00008777
     atom   26 type  1   force =     0.00009864   -0.00001168    0.00008777
     atom   27 type  1   force =     0.00003920   -0.00009127   -0.00008777
     atom   28 type  1   force =    -0.00003920    0.00009127    0.00008777
     atom   29 type  1   force =     0.00005944    0.00007959   -0.00008777
     atom   30 type  1   force =    -0.00005944   -0.00007959    0.00008777
     atom   31 type  1   force =    -0.00001643   -0.00000033    0.00008340
     atom   32 type  1   force =     0.00001643    0.00000033   -0.00008340
     atom   33 type  1   force =     0.00000850   -0.00001406    0.00008340
     atom   34 type  1   force =    -0.00000850    0.00001406   -0.00008340
     atom   35 type  1   force =     0.00000793    0.00001439    0.00008340
     atom   36 type  1   force =    -0.00000793   -0.00001439   -0.00008340

     Total force =     0.000583     Total SCF correction =     0.000029


     Computing stress (Cartesian axis) and pressure

          total   stress  (Ry/bohr**3)                   (kbar)     P=      -14.69
  -0.00011617  -0.00000000   0.00000000          -17.09       -0.00        0.00
   0.00000000  -0.00011617  -0.00000000            0.00      -17.09       -0.00
   0.00000000  -0.00000000  -0.00006716            0.00       -0.00       -9.88

     Energy error            =      6.4E-07 Ry
     Gradient error          =      9.9E-05 Ry/Bohr

     bfgs converged in  50 scf cycles and  49 bfgs steps
     (criteria: energy <  1.0E-04 Ry, force <  1.0E-04 Ry/Bohr)

     End of BFGS Geometry Optimization

     Final energy             =    -413.9583460214 Ry

     File ./iceII/iceII.bfgs deleted, as requested
Begin final coordinates

ATOMIC_POSITIONS (crystal)
O                0.2655178139        0.0175188856        0.8555581386
O                0.7344821861        0.9824811254        0.1444418314
O                0.8555581386        0.2655178139        0.0175188856
O                0.1444418314        0.7344821861        0.9824811254
O                0.0175188856        0.8555581386        0.2655178139
O                0.9824811254        0.1444418314        0.7344821861
O                0.4860624178        0.7511660700        0.3376146209
O                0.5139375822        0.2488339300        0.6623853491
O                0.3376146209        0.4860624178        0.7511660700
O                0.6623853491        0.5139375822        0.2488339300
O                0.7511660700        0.3376146209        0.4860624178
O                0.2488339300        0.6623853491        0.5139375822
H                0.1447046434        0.0375515859        0.7962698925
H                0.8552953426        0.9624484061        0.2037301075
H                0.7962698925        0.1447046434        0.0375515859
H                0.2037301075        0.8552953426        0.9624484061
H                0.0375515859        0.7962698925        0.1447046434
H                0.9624484061        0.2037301075        0.8552953426
H                0.4177764949        0.1853330073        0.9857543537
H                0.5822235051        0.8146670077        0.0142456253
H                0.9857543537        0.4177764949        0.1853330073
H                0.0142456253        0.5822235051        0.8146670077
H                0.1853330073        0.9857543537        0.4177764949
H                0.8146670077        0.0142456253        0.5822235051
H                0.7290819474        0.4120896966        0.4129583508
H                0.2709180526        0.5879102734        0.5870416792
H                0.4129583508        0.7290819474        0.4120896966
H                0.5870416792        0.2709180526        0.5879102734
H                0.4120896966        0.4129583508        0.7290819474
H                0.5879102734        0.5870416792        0.2709180526
H                0.7467497397        0.2126091735        0.3820320752
H                0.2532502603        0.7873908115        0.6179679248
H                0.3820320752        0.7467497397        0.2126091735
H                0.6179679248        0.2532502603        0.7873908115
H                0.2126091735        0.3820320752        0.7467497397
H                0.7873908115        0.6179679248        0.2532502603
End final coordinates



     Writing all to output data dir ./iceII/iceII.save/ :
     XML data file, charge density, pseudopotentials, collected wavefunctions

     init_run     :      1.24s CPU      1.31s WALL (       1 calls)
     electrons    :    302.84s CPU    307.81s WALL (      50 calls)
     update_pot   :      1.43s CPU      1.52s WALL (      49 calls)
     forces       :      6.97s CPU      7.00s WALL (      50 calls)
     stress       :     46.98s CPU     47.03s WALL (      50 calls)

     Called by init_run:
     wfcinit      :      0.37s CPU      0.37s WALL (       1 calls)
     potinit      :      0.04s CPU      0.05s WALL (       1 calls)
     hinit0       :      0.67s CPU      0.68s WALL (       1 calls)

     Called by electrons:
     c_bands      :    255.54s CPU    257.87s WALL (     325 calls)
     sum_band     :     37.00s CPU     37.30s WALL (     325 calls)
     v_of_rho     :      8.01s CPU      8.14s WALL (     343 calls)
     newd         :      1.28s CPU      1.30s WALL (     343 calls)
     mix_rho      :      0.94s CPU      0.96s WALL (     325 calls)

     Called by c_bands:
     init_us_2    :      4.65s CPU      4.84s WALL (    3004 calls)
     cegterg      :    247.15s CPU    248.67s WALL (    1300 calls)

     Called by *egterg:
     cdiaghg      :     18.05s CPU     18.08s WALL (    4632 calls)
     h_psi        :    186.78s CPU    188.17s WALL (    4960 calls)
     s_psi        :      8.27s CPU      8.29s WALL (    4960 calls)
     g_psi        :      0.53s CPU      0.53s WALL (    3656 calls)

     Called by h_psi:
     h_psi:calbec :     13.23s CPU     13.31s WALL (    4960 calls)
     vloc_psi     :    163.92s CPU    165.20s WALL (    4960 calls)
     add_vuspsi   :      8.25s CPU      8.28s WALL (    4960 calls)

     General routines
     calbec       :     19.73s CPU     19.85s WALL (    7260 calls)
     fft          :      5.45s CPU      5.56s WALL (    4254 calls)
     ffts         :      0.41s CPU      0.41s WALL (     325 calls)
     fftw         :    171.02s CPU    172.31s WALL (  442624 calls)

     Parallel routines

     PWSCF        :   6m 3.08s CPU   6m 9.44s WALL


   This run was terminated on:  19:38:15  31Mar2026            

=------------------------------------------------------------------------------=
   JOB DONE.
=------------------------------------------------------------------------------=
