
     Program PWSCF v.7.3.1 starts on 21Mar2026 at 20:12: 6 

     This program is part of the open-source Quantum ESPRESSO suite
     for quantum simulation of materials; please cite
         "P. Giannozzi et al., J. Phys.:Condens. Matter 21 395502 (2009);
         "P. Giannozzi et al., J. Phys.:Condens. Matter 29 465901 (2017);
         "P. Giannozzi et al., J. Chem. Phys. 152 154105 (2020);
          URL http://www.quantum-espresso.org", 
     in publications or presentations arising from this work. More details at
     http://www.quantum-espresso.org/quote

     Parallel version (MPI), running on   128 processors

     MPI processes distributed on     1 nodes
     242854 MiB available memory on the printing compute node when the environment starts

     Waiting for input...
     Reading input from standard input

     Current dimensions of program PWSCF are:
     Max number of different atomic species (ntypx) = 10
     Max number of k-points (npk) =  40000
     Max angular momentum in pseudopotentials (lmaxx) =  4

     K-points division:     npool     =       4
     R & G space division:  proc/nbgrp/npool/nimage =      32
     Subspace diagonalization in iterative solution of the eigenvalue problem:
     a serial algorithm will be used


     Parallelization info
     --------------------
     sticks:   dense  smooth     PW     G-vecs:    dense   smooth      PW
     Min         186     186     54                 7949     7949    1255
     Max         187     187     55                 7951     7951    1258
     Sum        5977    5977   1751               254413   254413   40201

     Using Slab Decomposition



     bravais-lattice index     =            5
     lattice parameter (alat)  =      15.0549  a.u.
     unit-cell volume          =    2204.5887 (a.u.)^3
     number of atoms/cell      =           36
     number of atomic types    =            2
     number of electrons       =        96.00
     number of Kohn-Sham states=           48
     kinetic-energy cutoff     =      90.0000  Ry
     charge density cutoff     =     360.0000  Ry
     scf convergence threshold =      1.0E-07
     mixing beta               =       0.7000
     number of iterations used =            8  plain     mixing
     Exchange-correlation=  SLA  PW   PBE  PBE
                           (   1   4   3   4   0   0   0)

     celldm(1)=  15.054918  celldm(2)=   0.000000  celldm(3)=   0.000000
     celldm(4)=  -0.392337  celldm(5)=   0.000000  celldm(6)=   0.000000

     crystal axes: (cart. coord. in units of alat)
               a(1) = (   0.834367  -0.481722   0.267909 )  
               a(2) = (   0.000000   0.963444   0.267909 )  
               a(3) = (  -0.834367  -0.481722   0.267909 )  

     reciprocal axes: (cart. coord. in units 2 pi/alat)
               b(1) = (  0.599257 -0.345981  1.244203 )  
               b(2) = (  0.000000  0.691962  1.244203 )  
               b(3) = ( -0.599257 -0.345981  1.244203 )  


     PseudoPot. # 1 for H  read from file:
     ./H.pbe-van_ak.UPF
     MD5 check sum: 077eb6d537518a38cb46c6de387227b7
     Pseudo is Ultrasoft, Zval =  1.0
     Generated by new atomic code, or converted to UPF format
     Using radial grid of  615 points,  1 beta functions with: 
                l(1) =   0
     Q(r) pseudized with  8 coefficients,  rinner =    0.800

     PseudoPot. # 2 for O  read from file:
     ./O.pbe-van_ak.UPF
     MD5 check sum: 78c19812648e8988a0fe644b0f25305e
     Pseudo is Ultrasoft, Zval =  6.0
     Generated by new atomic code, or converted to UPF format
     Using radial grid of  737 points,  4 beta functions with: 
                l(1) =   0
                l(2) =   0
                l(3) =   1
                l(4) =   1
     Q(r) pseudized with  8 coefficients,  rinner =    0.800   0.800   0.800


     atomic species   valence    mass     pseudopotential
     H                 1.00     1.00800     H ( 1.00)
     O                 6.00    16.00000     O ( 1.00)

      6 Sym. Ops., with inversion, found



   Cartesian axes

     site n.     atom                  positions (alat units)
         1        O      tau(   1) = (  -0.4847673  -0.5197781   0.3083633  )
         2        O      tau(   2) = (   0.4847673   0.5197782   0.4953638  )
         3        O      tau(   3) = (   0.6925247  -0.1599317   0.3083633  )
         4        O      tau(   4) = (  -0.6925248   0.1599317   0.4953638  )
         5        O      tau(   5) = (  -0.2077574   0.6797099   0.3083633  )
         6        O      tau(   6) = (   0.2077574  -0.6797099   0.4953638  )
         7        O      tau(   7) = (   0.1218176   0.3323883   0.4179381  )
         8        O      tau(   8) = (  -0.1218176  -0.3323883   0.3857890  )
         9        O      tau(   9) = (  -0.3487655  -0.0606970   0.4179381  )
        10        O      tau(  10) = (   0.3487655   0.0606970   0.3857890  )
        11        O      tau(  11) = (   0.2269479  -0.2716913   0.4179381  )
        12        O      tau(  12) = (  -0.2269479   0.2716912   0.3857890  )
        13        H      tau(  13) = (  -0.5381668  -0.4032014   0.2796970  )
        14        H      tau(  14) = (   0.5381668   0.4032014   0.5240301  )
        15        H      tau(  15) = (   0.6182661  -0.2644654   0.2796970  )
        16        H      tau(  16) = (  -0.6182661   0.2644654   0.5240301  )
        17        H      tau(  17) = (  -0.0800993   0.6676668   0.2796970  )
        18        H      tau(  18) = (   0.0800993  -0.6676668   0.5240301  )
        19        H      tau(  19) = (  -0.4872704  -0.4817221   0.4326731  )
        20        H      tau(  20) = (   0.4872704   0.4817221   0.3710540  )
        21        H      tau(  21) = (   0.6608188  -0.1811275   0.4326731  )
        22        H      tau(  22) = (  -0.6608188   0.1811275   0.3710540  )
        23        H      tau(  23) = (  -0.1735484   0.6628496   0.4326731  )
        24        H      tau(  24) = (   0.1735484  -0.6628496   0.3710540  )
        25        H      tau(  25) = (   0.2703349  -0.1502973   0.4058822  )
        26        H      tau(  26) = (  -0.2703350   0.1502973   0.3978449  )
        27        H      tau(  27) = (  -0.0050062   0.3092656   0.4058822  )
        28        H      tau(  28) = (   0.0050062  -0.3092656   0.3978449  )
        29        H      tau(  29) = (  -0.2653287  -0.1589683   0.4058822  )
        30        H      tau(  30) = (   0.2653287   0.1589683   0.3978449  )
        31        H      tau(  31) = (   0.3178939  -0.3347969   0.3493534  )
        32        H      tau(  32) = (  -0.3178939   0.3347969   0.4543737  )
        33        H      tau(  33) = (   0.1309957   0.4427026   0.3493534  )
        34        H      tau(  34) = (  -0.1309956  -0.4427026   0.4543737  )
        35        H      tau(  35) = (  -0.4488895  -0.1079057   0.3493534  )
        36        H      tau(  36) = (   0.4488895   0.1079057   0.4543737  )

     number of k points=    14
                       cart. coord. in units 2pi/alat
        k(    1) = (   0.0000000   0.0000000   0.0000000), wk =   0.0312500
        k(    2) = (  -0.1498141  -0.0864952   0.3110508), wk =   0.1875000
        k(    3) = (   0.2996283   0.1729905  -0.6221017), wk =   0.0937500
        k(    4) = (  -0.1498141   0.0864952   0.6221017), wk =   0.1875000
        k(    5) = (   0.2996283   0.3459809  -0.3110508), wk =   0.1875000
        k(    6) = (   0.1498141   0.2594857   0.0000000), wk =   0.1875000
        k(    7) = (   0.2996283  -0.1729905  -1.2442034), wk =   0.0937500
        k(    8) = (   0.0000000   0.0000000   0.9331525), wk =   0.0625000
        k(    9) = (   0.4494424   0.2594857   0.0000000), wk =   0.1875000
        k(   10) = (   0.2996283   0.1729905   0.3110508), wk =   0.1875000
        k(   11) = (   0.4494424  -0.2594857  -0.9331525), wk =   0.1875000
        k(   12) = (   0.2996283  -0.3459809  -0.6221017), wk =   0.1875000
        k(   13) = (   0.0000000   0.0000000  -1.8663050), wk =   0.0312500
        k(   14) = (   0.2996283  -0.3459809   0.3110508), wk =   0.1875000

     Dense  grid:   254413 G-vectors     FFT dimensions: (  96,  96,  96)

     Estimated max dynamical RAM per process >      16.65 MB

     Estimated total dynamical RAM >       1.90 GB

     Initial potential from superposition of free atoms

     starting charge      95.9998, renormalised to      96.0000
     Starting wfcs are   72 randomized atomic wfcs

     total cpu time spent up to now is        1.5 secs

     per-process dynamical memory:    20.6 Mb

     Self-consistent Calculation

     iteration #  1     ecut=    90.00 Ry     beta= 0.70
     Davidson diagonalization with overlap
     ethr =  1.00E-02,  avg # of iterations =  2.0

     negative rho (up, down):  4.536E-08 0.000E+00

     total cpu time spent up to now is        2.4 secs

     total energy              =    -412.24310366 Ry
     estimated scf accuracy    <       3.65806691 Ry

     iteration #  2     ecut=    90.00 Ry     beta= 0.70
     Davidson diagonalization with overlap
     ethr =  3.81E-03,  avg # of iterations =  3.0

     negative rho (up, down):  4.590E-08 0.000E+00

     total cpu time spent up to now is        3.5 secs

     total energy              =    -413.38931095 Ry
     estimated scf accuracy    <       2.56578279 Ry

     iteration #  3     ecut=    90.00 Ry     beta= 0.70
     Davidson diagonalization with overlap
     ethr =  2.67E-03,  avg # of iterations =  2.0

     negative rho (up, down):  3.025E-07 0.000E+00

     total cpu time spent up to now is        4.4 secs

     total energy              =    -413.71169464 Ry
     estimated scf accuracy    <       0.11562590 Ry

     iteration #  4     ecut=    90.00 Ry     beta= 0.70
     Davidson diagonalization with overlap
     ethr =  1.20E-04,  avg # of iterations =  4.0

     negative rho (up, down):  4.841E-07 0.000E+00

     total cpu time spent up to now is        5.6 secs

     total energy              =    -413.80236875 Ry
     estimated scf accuracy    <       0.13308799 Ry

     iteration #  5     ecut=    90.00 Ry     beta= 0.70
     Davidson diagonalization with overlap
     ethr =  1.20E-04,  avg # of iterations =  2.0

     negative rho (up, down):  5.921E-07 0.000E+00

     total cpu time spent up to now is        6.3 secs

     total energy              =    -413.80579729 Ry
     estimated scf accuracy    <       0.02293960 Ry

     iteration #  6     ecut=    90.00 Ry     beta= 0.70
     Davidson diagonalization with overlap
     ethr =  2.39E-05,  avg # of iterations =  2.0

     negative rho (up, down):  6.871E-07 0.000E+00

     total cpu time spent up to now is        7.1 secs

     total energy              =    -413.80577692 Ry
     estimated scf accuracy    <       0.00663091 Ry

     iteration #  7     ecut=    90.00 Ry     beta= 0.70
     Davidson diagonalization with overlap
     ethr =  6.91E-06,  avg # of iterations =  3.0

     negative rho (up, down):  7.037E-07 0.000E+00

     total cpu time spent up to now is        8.1 secs

     total energy              =    -413.80741666 Ry
     estimated scf accuracy    <       0.00011487 Ry

     iteration #  8     ecut=    90.00 Ry     beta= 0.70
     Davidson diagonalization with overlap
     ethr =  1.20E-07,  avg # of iterations =  6.0

     negative rho (up, down):  6.902E-07 0.000E+00

     total cpu time spent up to now is        9.6 secs

     total energy              =    -413.80747180 Ry
     estimated scf accuracy    <       0.00083278 Ry

     iteration #  9     ecut=    90.00 Ry     beta= 0.70
     Davidson diagonalization with overlap
     ethr =  1.20E-07,  avg # of iterations =  3.0

     negative rho (up, down):  6.674E-07 0.000E+00

     total cpu time spent up to now is       10.6 secs

     total energy              =    -413.80743147 Ry
     estimated scf accuracy    <       0.00021002 Ry

     iteration # 10     ecut=    90.00 Ry     beta= 0.70
     Davidson diagonalization with overlap
     ethr =  1.20E-07,  avg # of iterations =  3.0

     negative rho (up, down):  6.655E-07 0.000E+00

     total cpu time spent up to now is       11.6 secs

     total energy              =    -413.80746876 Ry
     estimated scf accuracy    <       0.00000688 Ry

     iteration # 11     ecut=    90.00 Ry     beta= 0.70
     Davidson diagonalization with overlap
     ethr =  7.17E-09,  avg # of iterations =  3.5

     negative rho (up, down):  6.635E-07 0.000E+00

     total cpu time spent up to now is       12.6 secs

     total energy              =    -413.80747148 Ry
     estimated scf accuracy    <       0.00000060 Ry

     iteration # 12     ecut=    90.00 Ry     beta= 0.70
     Davidson diagonalization with overlap
     ethr =  6.21E-10,  avg # of iterations =  3.6

     negative rho (up, down):  6.646E-07 0.000E+00

     total cpu time spent up to now is       13.7 secs

     End of self-consistent calculation

          k = 0.0000 0.0000 0.0000 ( 31795 PWs)   bands (ev):

   -20.8653 -20.4649 -20.4649 -20.2668 -20.2668 -20.2405 -20.2405 -20.2306
   -20.2255 -19.9610 -19.9610 -19.6847  -8.2863  -8.1005  -8.0412  -8.0412
    -7.9782  -7.9782  -7.5583  -7.4150  -7.4150  -7.2067  -7.2067  -7.0885
    -7.0240  -6.2083  -6.2083  -5.6638  -5.6638  -5.5793  -5.5793  -5.3057
    -5.1357  -4.5186  -4.5186  -3.8817  -3.0932  -3.0932  -3.0016  -2.9260
    -2.8838  -2.8838  -2.7501  -2.7501  -2.7420  -2.7232  -2.6796  -2.6796

          k =-0.1498-0.0865 0.3111 ( 31779 PWs)   bands (ev):

   -20.8002 -20.5012 -20.4546 -20.3938 -20.3713 -20.3067 -20.1803 -20.1418
   -20.0943 -19.9663 -19.9295 -19.7377  -8.2358  -8.1618  -8.0884  -8.0464
    -7.9592  -7.9004  -7.5513  -7.3828  -7.3737  -7.2400  -7.1263  -7.0908
    -6.9070  -6.3441  -6.2263  -5.9699  -5.6654  -5.5481  -5.4082  -5.2011
    -5.1465  -4.5105  -4.4514  -4.0103  -3.1960  -3.1302  -3.0225  -2.9677
    -2.9174  -2.8873  -2.8478  -2.7866  -2.7312  -2.6920  -2.6641  -2.6201

          k = 0.2996 0.1730-0.6221 ( 31820 PWs)   bands (ev):

   -20.6330 -20.6298 -20.4817 -20.4742 -20.3704 -20.3693 -20.1288 -20.1237
   -19.9710 -19.9702 -19.8719 -19.8590  -8.2154  -8.1602  -8.0794  -8.0619
    -7.9600  -7.9048  -7.5003  -7.3860  -7.3497  -7.2490  -7.0521  -7.0506
    -6.6877  -6.5548  -6.2785  -6.1202  -5.6700  -5.5914  -5.4084  -5.2582
    -4.7618  -4.6320  -4.3930  -4.1724  -3.2889  -3.1471  -3.0459  -3.0167
    -2.9520  -2.9356  -2.8520  -2.7998  -2.7776  -2.6583  -2.6493  -2.5778

          k =-0.1498 0.0865 0.6221 ( 31790 PWs)   bands (ev):

   -20.6686 -20.5488 -20.5417 -20.4373 -20.4165 -20.3581 -20.1357 -20.0640
   -20.0338 -19.9303 -19.9136 -19.8348  -8.2224  -8.1385  -8.1214  -8.0193
    -7.9786  -7.8931  -7.5061  -7.4174  -7.3712  -7.1576  -7.0961  -7.0468
    -6.6922  -6.4934  -6.4049  -5.9660  -5.8054  -5.6328  -5.3355  -5.1420
    -4.9459  -4.4770  -4.4557  -4.1822  -3.2690  -3.1855  -3.0348  -2.9928
    -2.9621  -2.9153  -2.8773  -2.7981  -2.7696  -2.6676  -2.6518  -2.5724

          k = 0.2996 0.3460-0.3111 ( 31781 PWs)   bands (ev):

   -20.7146 -20.5775 -20.4875 -20.4598 -20.3929 -20.3291 -20.1405 -20.0501
   -20.0395 -19.9651 -19.9087 -19.8121  -8.2277  -8.2053  -8.0621  -8.0414
    -7.9863  -7.8975  -7.5309  -7.4746  -7.3591  -7.1279  -7.0978  -7.0365
    -6.8090  -6.5311  -6.3073  -5.9814  -5.9486  -5.4847  -5.3058  -5.0579
    -4.8440  -4.6243  -4.4336  -4.1599  -3.1918  -3.1266  -3.0497  -2.9832
    -2.9355  -2.8893  -2.8311  -2.8249  -2.7493  -2.7094  -2.6552  -2.5621

          k = 0.1498 0.2595 0.0000 ( 31780 PWs)   bands (ev):

   -20.8181 -20.5285 -20.4804 -20.3663 -20.3408 -20.2686 -20.1987 -20.1349
   -20.0991 -19.9703 -19.9396 -19.7268  -8.2718  -8.1723  -8.0813  -8.0424
    -7.9331  -7.9272  -7.5963  -7.4697  -7.2973  -7.2109  -7.1537  -7.0554
    -7.0237  -6.3338  -6.2114  -5.9593  -5.8516  -5.4299  -5.3082  -5.1823
    -5.0135  -4.5845  -4.4943  -3.9742  -3.0935  -3.0769  -3.0342  -2.9514
    -2.9158  -2.8921  -2.7886  -2.7720  -2.7433  -2.7342  -2.6409  -2.6283

          k = 0.2996-0.1730-1.2442 ( 31798 PWs)   bands (ev):

   -20.7040 -20.6728 -20.4921 -20.4118 -20.3394 -20.2918 -20.1486 -20.1207
   -20.0176 -20.0013 -19.8426 -19.8289  -8.2520  -8.2176  -8.0951  -8.0609
    -7.9053  -7.9049  -7.5885  -7.5280  -7.2772  -7.2349  -7.0690  -7.0290
    -6.7557  -6.7112  -6.2766  -6.0607  -5.7643  -5.5474  -5.1962  -4.9473
    -4.8475  -4.7663  -4.3537  -4.1753  -3.1057  -3.0631  -3.0510  -2.9813
    -2.9168  -2.8688  -2.8456  -2.7812  -2.7709  -2.7322  -2.6101  -2.5954

          k = 0.0000 0.0000 0.9332 ( 31815 PWs)   bands (ev):

   -20.6198 -20.6198 -20.5502 -20.5133 -20.3576 -20.3576 -20.0736 -20.0736
   -19.9614 -19.9364 -19.9071 -19.9071  -8.2065  -8.2065  -8.0800  -7.9859
    -7.9859  -7.9680  -7.5384  -7.4451  -7.4451  -7.0431  -7.0431  -7.0091
    -6.6253  -6.6197  -6.6197  -6.0057  -5.7251  -5.7251  -5.1088  -4.9293
    -4.9293  -4.4952  -4.4952  -4.3277  -3.1399  -3.1399  -3.0268  -2.9766
    -2.9090  -2.9090  -2.8602  -2.7992  -2.7992  -2.6964  -2.6964  -2.5404

          k = 0.4494 0.2595 0.0000 ( 31782 PWs)   bands (ev):

   -20.7307 -20.5840 -20.5801 -20.4136 -20.2912 -20.2847 -20.1634 -20.1570
   -20.0184 -19.9376 -19.9083 -19.8026  -8.2476  -8.2067  -8.1460  -8.0023
    -7.9473  -7.8857  -7.6051  -7.4827  -7.3622  -7.1392  -7.0933  -7.0477
    -6.8494  -6.4994  -6.4266  -6.0146  -5.7844  -5.5400  -5.1169  -5.0790
    -4.8887  -4.5928  -4.4575  -4.1498  -3.0906  -3.0834  -3.0412  -2.9855
    -2.9324  -2.8802  -2.8155  -2.7950  -2.7505  -2.7112  -2.6569  -2.5786

          k = 0.2996 0.1730 0.3111 ( 31777 PWs)   bands (ev):

   -20.7562 -20.5401 -20.4638 -20.4479 -20.3710 -20.3206 -20.1528 -20.1246
   -20.0646 -19.9551 -19.9095 -19.7712  -8.2467  -8.1917  -8.1131  -7.9963
    -7.9913  -7.8549  -7.5635  -7.4473  -7.2791  -7.2111  -7.1703  -7.0813
    -6.8341  -6.3527  -6.1913  -6.1067  -5.8848  -5.5706  -5.2940  -5.1082
    -4.9491  -4.5784  -4.4393  -4.0537  -3.2089  -3.1361  -3.0688  -3.0170
    -2.9307  -2.8931  -2.8247  -2.7963  -2.7210  -2.6821  -2.6294  -2.6117

          k = 0.4494-0.2595-0.9332 ( 31769 PWs)   bands (ev):

   -20.6419 -20.6409 -20.5189 -20.4762 -20.3608 -20.2929 -20.1874 -20.1127
   -19.9881 -19.9388 -19.8951 -19.8229  -8.2738  -8.1810  -8.1427  -8.0028
    -7.9592  -7.8357  -7.6028  -7.4048  -7.2956  -7.2434  -7.1123  -7.0872
    -6.5977  -6.5590  -6.2619  -6.1153  -5.9400  -5.6523  -5.2556  -4.9906
    -4.6925  -4.6732  -4.4829  -4.1166  -3.2110  -3.1528  -3.1193  -3.0166
    -2.9847  -2.9068  -2.7801  -2.7594  -2.7337  -2.6947  -2.6310  -2.5794

          k = 0.2996-0.3460-0.6221 ( 31772 PWs)   bands (ev):

   -20.6019 -20.6010 -20.5095 -20.5036 -20.3874 -20.3866 -20.1146 -20.1104
   -19.9764 -19.9708 -19.8658 -19.8545  -8.2872  -8.1012  -8.0722  -8.0554
    -8.0224  -7.8403  -7.5309  -7.4123  -7.2787  -7.2336  -7.0947  -7.0897
    -6.5636  -6.4409  -6.2934  -6.1684  -5.8703  -5.8350  -5.1804  -5.1106
    -4.7023  -4.6589  -4.4999  -4.1014  -3.3179  -3.1657  -3.1179  -3.0524
    -3.0047  -2.8808  -2.8199  -2.7839  -2.7654  -2.6514  -2.6360  -2.5632

          k = 0.0000 0.0000-1.8663 ( 31764 PWs)   bands (ev):

   -20.5747 -20.5682 -20.4791 -20.4791 -20.4704 -20.4704 -20.0471 -20.0471
   -20.0246 -20.0246 -19.8523 -19.8443  -8.3312  -8.0694  -8.0694  -8.0459
    -8.0459  -7.8101  -7.5771  -7.4072  -7.1911  -7.1911  -7.1599  -7.1599
    -6.4071  -6.2208  -6.1873  -6.1873  -6.1627  -6.1627  -4.9774  -4.9774
    -4.7323  -4.7323  -4.5273  -4.0535  -3.3470  -3.1667  -3.1667  -3.0847
    -3.0847  -2.8320  -2.8136  -2.7291  -2.7291  -2.6632  -2.6632  -2.5403

          k = 0.2996-0.3460 0.3111 ( 31781 PWs)   bands (ev):

   -20.7145 -20.5779 -20.4880 -20.4601 -20.3905 -20.3298 -20.1408 -20.0599
   -20.0272 -19.9710 -19.9041 -19.8134  -8.2425  -8.1738  -8.0968  -8.0393
    -7.9569  -7.9058  -7.5733  -7.4466  -7.3356  -7.1625  -7.0655  -7.0555
    -6.8037  -6.4682  -6.3929  -6.0354  -5.8051  -5.5422  -5.3829  -4.9762
    -4.8267  -4.6100  -4.4957  -4.1416  -3.1985  -3.1011  -3.0655  -2.9799
    -2.9388  -2.8948  -2.8302  -2.8264  -2.7657  -2.6815  -2.6560  -2.5696

     highest occupied level (ev):    -2.5403

!    total energy              =    -413.80747176 Ry
     estimated scf accuracy    <       0.00000005 Ry

     The total energy is the sum of the following terms:
     one-electron contribution =    -299.40252222 Ry
     hartree contribution      =     183.06461406 Ry
     xc contribution           =    -100.64867282 Ry
     ewald contribution        =    -196.82089078 Ry

     convergence has been achieved in  12 iterations

     Forces acting on atoms (cartesian axes, Ry/au):

     atom    1 type  2   force =    -0.04641217    0.09650244    0.05303052
     atom    2 type  2   force =     0.04641217   -0.09650244   -0.05303052
     atom    3 type  2   force =    -0.06036748   -0.08844534    0.05303052
     atom    4 type  2   force =     0.06036748    0.08844534   -0.05303052
     atom    5 type  2   force =     0.10677965   -0.00805710    0.05303052
     atom    6 type  2   force =    -0.10677965    0.00805710   -0.05303052
     atom    7 type  2   force =    -0.05755952    0.04197434   -0.03833742
     atom    8 type  2   force =     0.05755952   -0.04197434    0.03833742
     atom    9 type  2   force =    -0.00757109   -0.07083518   -0.03833742
     atom   10 type  2   force =     0.00757109    0.07083518    0.03833742
     atom   11 type  2   force =     0.06513061    0.02886084   -0.03833742
     atom   12 type  2   force =    -0.06513061   -0.02886084    0.03833742
     atom   13 type  1   force =     0.01578553   -0.05247955   -0.03996183
     atom   14 type  1   force =    -0.01578553    0.05247955    0.03996183
     atom   15 type  1   force =     0.03755586    0.03991045   -0.03996183
     atom   16 type  1   force =    -0.03755586   -0.03991045    0.03996183
     atom   17 type  1   force =    -0.05334139    0.01256910   -0.03996183
     atom   18 type  1   force =     0.05334139   -0.01256910    0.03996183
     atom   19 type  1   force =     0.02806583   -0.05050998   -0.02269861
     atom   20 type  1   force =    -0.02806583    0.05050998    0.02269861
     atom   21 type  1   force =     0.02971001    0.04956071   -0.02269861
     atom   22 type  1   force =    -0.02971001   -0.04956071    0.02269861
     atom   23 type  1   force =    -0.05777584    0.00094927   -0.02269861
     atom   24 type  1   force =     0.05777584   -0.00094927    0.02269861
     atom   25 type  1   force =    -0.02280497   -0.03452643    0.01411901
     atom   26 type  1   force =     0.02280497    0.03452643   -0.01411901
     atom   27 type  1   force =     0.04130325   -0.00248647    0.01411901
     atom   28 type  1   force =    -0.04130325    0.00248647   -0.01411901
     atom   29 type  1   force =    -0.01849828    0.03701290    0.01411901
     atom   30 type  1   force =     0.01849828   -0.03701290   -0.01411901
     atom   31 type  1   force =    -0.04983205    0.00910722    0.03277804
     atom   32 type  1   force =     0.04983205   -0.00910722   -0.03277804
     atom   33 type  1   force =     0.01702894   -0.04770944    0.03277804
     atom   34 type  1   force =    -0.01702894    0.04770944   -0.03277804
     atom   35 type  1   force =     0.03280311    0.03860221    0.03277804
     atom   36 type  1   force =    -0.03280311   -0.03860221   -0.03277804

     Total force =     0.457145     Total SCF correction =     0.000298


     Computing stress (Cartesian axis) and pressure

          total   stress  (Ry/bohr**3)                   (kbar)     P=      -68.22
  -0.00054299  -0.00000000  -0.00000000          -79.88       -0.00       -0.00
   0.00000000  -0.00054299  -0.00000000            0.00      -79.88       -0.00
   0.00000000  -0.00000000  -0.00030532            0.00       -0.00      -44.91


     Writing all to output data dir ./iceII/iceII.save/ :
     XML data file, charge density, pseudopotentials, collected wavefunctions

     init_run     :      1.25s CPU      1.31s WALL (       1 calls)
     electrons    :     12.03s CPU     12.24s WALL (       1 calls)
     forces       :      0.14s CPU      0.15s WALL (       1 calls)
     stress       :      0.94s CPU      0.95s WALL (       1 calls)

     Called by init_run:
     wfcinit      :      0.37s CPU      0.37s WALL (       1 calls)
     potinit      :      0.04s CPU      0.05s WALL (       1 calls)
     hinit0       :      0.67s CPU      0.68s WALL (       1 calls)

     Called by electrons:
     c_bands      :     10.16s CPU     10.24s WALL (      12 calls)
     sum_band     :      1.37s CPU      1.39s WALL (      12 calls)
     v_of_rho     :      0.33s CPU      0.37s WALL (      13 calls)
     newd         :      0.10s CPU      0.11s WALL (      13 calls)
     mix_rho      :      0.05s CPU      0.05s WALL (      12 calls)

     Called by c_bands:
     init_us_2    :      0.17s CPU      0.17s WALL (     108 calls)
     cegterg      :      9.80s CPU      9.87s WALL (      48 calls)

     Called by *egterg:
     cdiaghg      :      0.75s CPU      0.75s WALL (     197 calls)
     h_psi        :      7.61s CPU      7.67s WALL (     201 calls)
     s_psi        :      0.32s CPU      0.33s WALL (     201 calls)
     g_psi        :      0.02s CPU      0.02s WALL (     149 calls)

     Called by h_psi:
     h_psi:calbec :      0.56s CPU      0.56s WALL (     201 calls)
     vloc_psi     :      6.66s CPU      6.71s WALL (     201 calls)
     add_vuspsi   :      0.34s CPU      0.34s WALL (     201 calls)

     General routines
     calbec       :      0.75s CPU      0.76s WALL (     269 calls)
     fft          :      0.86s CPU      0.90s WALL (     151 calls)
     ffts         :      0.01s CPU      0.02s WALL (      12 calls)
     fftw         :      6.87s CPU      6.92s WALL (   17762 calls)

     Parallel routines

     PWSCF        :     14.67s CPU     15.26s WALL


   This run was terminated on:  20:12:21  21Mar2026            

=------------------------------------------------------------------------------=
   JOB DONE.
=------------------------------------------------------------------------------=
