
     Program PWSCF v.7.3.1 starts on 23Mar2026 at 18: 1:40 

     This program is part of the open-source Quantum ESPRESSO suite
     for quantum simulation of materials; please cite
         "P. Giannozzi et al., J. Phys.:Condens. Matter 21 395502 (2009);
         "P. Giannozzi et al., J. Phys.:Condens. Matter 29 465901 (2017);
         "P. Giannozzi et al., J. Chem. Phys. 152 154105 (2020);
          URL http://www.quantum-espresso.org", 
     in publications or presentations arising from this work. More details at
     http://www.quantum-espresso.org/quote

     Parallel version (MPI), running on   128 processors

     MPI processes distributed on     1 nodes
     242775 MiB available memory on the printing compute node when the environment starts

     Waiting for input...
     Reading input from standard input

     Current dimensions of program PWSCF are:
     Max number of different atomic species (ntypx) = 10
     Max number of k-points (npk) =  40000
     Max angular momentum in pseudopotentials (lmaxx) =  4

     K-points division:     npool     =       4
     R & G space division:  proc/nbgrp/npool/nimage =      32
     Subspace diagonalization in iterative solution of the eigenvalue problem:
     a serial algorithm will be used


     Parallelization info
     --------------------
     sticks:   dense  smooth     PW     G-vecs:    dense   smooth      PW
     Min         187     187     54                 7996     7996    1263
     Max         188     188     55                 7998     7998    1266
     Sum        5999    5999   1755               255895   255895   40483

     Using Slab Decomposition



     bravais-lattice index     =            5
     lattice parameter (alat)  =      15.0843  a.u.
     unit-cell volume          =    2217.5314 (a.u.)^3
     number of atoms/cell      =           36
     number of atomic types    =            2
     number of electrons       =        96.00
     number of Kohn-Sham states=           48
     kinetic-energy cutoff     =      90.0000  Ry
     charge density cutoff     =     360.0000  Ry
     scf convergence threshold =      1.0E-07
     mixing beta               =       0.7000
     number of iterations used =            8  plain     mixing
     Exchange-correlation=  SLA  PW   PBE  PBE
                           (   1   4   3   4   0   0   0)

     celldm(1)=  15.084322  celldm(2)=   0.000000  celldm(3)=   0.000000
     celldm(4)=  -0.392337  celldm(5)=   0.000000  celldm(6)=   0.000000

     crystal axes: (cart. coord. in units of alat)
               a(1) = (   0.834367  -0.481722   0.267909 )  
               a(2) = (   0.000000   0.963444   0.267909 )  
               a(3) = (  -0.834367  -0.481722   0.267909 )  

     reciprocal axes: (cart. coord. in units 2 pi/alat)
               b(1) = (  0.599257 -0.345981  1.244203 )  
               b(2) = (  0.000000  0.691962  1.244203 )  
               b(3) = ( -0.599257 -0.345981  1.244203 )  


     PseudoPot. # 1 for H  read from file:
     ./H.pbe-van_ak.UPF
     MD5 check sum: 077eb6d537518a38cb46c6de387227b7
     Pseudo is Ultrasoft, Zval =  1.0
     Generated by new atomic code, or converted to UPF format
     Using radial grid of  615 points,  1 beta functions with: 
                l(1) =   0
     Q(r) pseudized with  8 coefficients,  rinner =    0.800

     PseudoPot. # 2 for O  read from file:
     ./O.pbe-van_ak.UPF
     MD5 check sum: 78c19812648e8988a0fe644b0f25305e
     Pseudo is Ultrasoft, Zval =  6.0
     Generated by new atomic code, or converted to UPF format
     Using radial grid of  737 points,  4 beta functions with: 
                l(1) =   0
                l(2) =   0
                l(3) =   1
                l(4) =   1
     Q(r) pseudized with  8 coefficients,  rinner =    0.800   0.800   0.800


     atomic species   valence    mass     pseudopotential
     H                 1.00     1.00800     H ( 1.00)
     O                 6.00    16.00000     O ( 1.00)

      6 Sym. Ops., with inversion, found



   Cartesian axes

     site n.     atom                  positions (alat units)
         1        O      tau(   1) = (  -0.4910119  -0.5205722   0.3052394  )
         2        O      tau(   2) = (   0.4910119   0.5205722   0.4984877  )
         3        O      tau(   3) = (   0.6963347  -0.1649427   0.3052394  )
         4        O      tau(   4) = (  -0.6963347   0.1649427   0.4984877  )
         5        O      tau(   5) = (  -0.2053228   0.6855149   0.3052394  )
         6        O      tau(   6) = (   0.2053228  -0.6855149   0.4984877  )
         7        O      tau(   7) = (   0.1229870   0.3303028   0.4196306  )
         8        O      tau(   8) = (  -0.1229870  -0.3303028   0.3840965  )
         9        O      tau(   9) = (  -0.3475441  -0.0586415   0.4196306  )
        10        O      tau(  10) = (   0.3475441   0.0586415   0.3840965  )
        11        O      tau(  11) = (   0.2245571  -0.2716613   0.4196306  )
        12        O      tau(  12) = (  -0.2245571   0.2716612   0.3840965  )
        13        H      tau(  13) = (  -0.5446961  -0.4126715   0.2597134  )
        14        H      tau(  14) = (   0.5446961   0.4126715   0.5440137  )
        15        H      tau(  15) = (   0.6297321  -0.2653849   0.2597134  )
        16        H      tau(  16) = (  -0.6297321   0.2653849   0.5440137  )
        17        H      tau(  17) = (  -0.0850360   0.6780564   0.2597134  )
        18        H      tau(  18) = (   0.0850360  -0.6780564   0.5440137  )
        19        H      tau(  19) = (  -0.4726389  -0.4926041   0.4288765  )
        20        H      tau(  20) = (   0.4726389   0.4926042   0.3748506  )
        21        H      tau(  21) = (   0.6629272  -0.1630152   0.4288765  )
        22        H      tau(  22) = (  -0.6629272   0.1630152   0.3748506  )
        23        H      tau(  23) = (  -0.1902883   0.6556194   0.4288765  )
        24        H      tau(  24) = (   0.1902883  -0.6556194   0.3748506  )
        25        H      tau(  25) = (   0.2676988  -0.1507235   0.4151121  )
        26        H      tau(  26) = (  -0.2676988   0.1507234   0.3886151  )
        27        H      tau(  27) = (  -0.0033191   0.3071957   0.4151121  )
        28        H      tau(  28) = (   0.0033191  -0.3071957   0.3886151  )
        29        H      tau(  29) = (  -0.2643797  -0.1564722   0.4151121  )
        30        H      tau(  30) = (   0.2643797   0.1564723   0.3886151  )
        31        H      tau(  31) = (   0.3102941  -0.3416444   0.3555952  )
        32        H      tau(  32) = (  -0.3102941   0.3416444   0.4481319  )
        33        H      tau(  33) = (   0.1407257   0.4395448   0.3555952  )
        34        H      tau(  34) = (  -0.1407257  -0.4395448   0.4481319  )
        35        H      tau(  35) = (  -0.4510198  -0.0979003   0.3555952  )
        36        H      tau(  36) = (   0.4510198   0.0979003   0.4481319  )

     number of k points=    14
                       cart. coord. in units 2pi/alat
        k(    1) = (   0.0000000   0.0000000   0.0000000), wk =   0.0312500
        k(    2) = (  -0.1498141  -0.0864952   0.3110508), wk =   0.1875000
        k(    3) = (   0.2996283   0.1729905  -0.6221017), wk =   0.0937500
        k(    4) = (  -0.1498141   0.0864952   0.6221017), wk =   0.1875000
        k(    5) = (   0.2996283   0.3459809  -0.3110508), wk =   0.1875000
        k(    6) = (   0.1498141   0.2594857   0.0000000), wk =   0.1875000
        k(    7) = (   0.2996283  -0.1729905  -1.2442034), wk =   0.0937500
        k(    8) = (   0.0000000   0.0000000   0.9331525), wk =   0.0625000
        k(    9) = (   0.4494424   0.2594857   0.0000000), wk =   0.1875000
        k(   10) = (   0.2996283   0.1729905   0.3110508), wk =   0.1875000
        k(   11) = (   0.4494424  -0.2594857  -0.9331525), wk =   0.1875000
        k(   12) = (   0.2996283  -0.3459809  -0.6221017), wk =   0.1875000
        k(   13) = (   0.0000000   0.0000000  -1.8663050), wk =   0.0312500
        k(   14) = (   0.2996283  -0.3459809   0.3110508), wk =   0.1875000

     Dense  grid:   255895 G-vectors     FFT dimensions: (  96,  96,  96)

     Estimated max dynamical RAM per process >      16.73 MB

     Estimated total dynamical RAM >       1.91 GB

     Initial potential from superposition of free atoms

     starting charge      95.9998, renormalised to      96.0000
     Starting wfcs are   72 randomized atomic wfcs

     total cpu time spent up to now is        1.5 secs

     per-process dynamical memory:    20.8 Mb

     Self-consistent Calculation

     iteration #  1     ecut=    90.00 Ry     beta= 0.70
     Davidson diagonalization with overlap
     ethr =  1.00E-02,  avg # of iterations =  2.0

     negative rho (up, down):  4.719E-08 0.000E+00

     total cpu time spent up to now is        2.4 secs

     total energy              =    -412.30726392 Ry
     estimated scf accuracy    <       3.82201822 Ry

     iteration #  2     ecut=    90.00 Ry     beta= 0.70
     Davidson diagonalization with overlap
     ethr =  3.98E-03,  avg # of iterations =  3.0

     total cpu time spent up to now is        3.5 secs

     total energy              =    -413.50905276 Ry
     estimated scf accuracy    <       2.58433937 Ry

     iteration #  3     ecut=    90.00 Ry     beta= 0.70
     Davidson diagonalization with overlap
     ethr =  2.69E-03,  avg # of iterations =  2.0

     negative rho (up, down):  5.561E-08 0.000E+00

     total cpu time spent up to now is        4.4 secs

     total energy              =    -413.83598318 Ry
     estimated scf accuracy    <       0.11160015 Ry

     iteration #  4     ecut=    90.00 Ry     beta= 0.70
     Davidson diagonalization with overlap
     ethr =  1.16E-04,  avg # of iterations =  4.0

     negative rho (up, down):  3.062E-07 0.000E+00

     total cpu time spent up to now is        5.6 secs

     total energy              =    -413.92321800 Ry
     estimated scf accuracy    <       0.13490738 Ry

     iteration #  5     ecut=    90.00 Ry     beta= 0.70
     Davidson diagonalization with overlap
     ethr =  1.16E-04,  avg # of iterations =  2.0

     negative rho (up, down):  4.476E-07 0.000E+00

     total cpu time spent up to now is        6.4 secs

     total energy              =    -413.92663736 Ry
     estimated scf accuracy    <       0.02026861 Ry

     iteration #  6     ecut=    90.00 Ry     beta= 0.70
     Davidson diagonalization with overlap
     ethr =  2.11E-05,  avg # of iterations =  2.0

     negative rho (up, down):  5.950E-07 0.000E+00

     total cpu time spent up to now is        7.2 secs

     total energy              =    -413.92827516 Ry
     estimated scf accuracy    <       0.00289082 Ry

     iteration #  7     ecut=    90.00 Ry     beta= 0.70
     Davidson diagonalization with overlap
     ethr =  3.01E-06,  avg # of iterations =  3.0

     negative rho (up, down):  5.683E-07 0.000E+00

     total cpu time spent up to now is        8.3 secs

     total energy              =    -413.93042698 Ry
     estimated scf accuracy    <       0.00125576 Ry

     iteration #  8     ecut=    90.00 Ry     beta= 0.70
     Davidson diagonalization with overlap
     ethr =  1.31E-06,  avg # of iterations =  1.0

     negative rho (up, down):  4.815E-07 0.000E+00

     total cpu time spent up to now is        9.0 secs

     total energy              =    -413.92976398 Ry
     estimated scf accuracy    <       0.00174706 Ry

     iteration #  9     ecut=    90.00 Ry     beta= 0.70
     Davidson diagonalization with overlap
     ethr =  1.31E-06,  avg # of iterations =  2.0

     negative rho (up, down):  4.611E-07 0.000E+00

     total cpu time spent up to now is        9.8 secs

     total energy              =    -413.92981260 Ry
     estimated scf accuracy    <       0.00023763 Ry

     iteration # 10     ecut=    90.00 Ry     beta= 0.70
     Davidson diagonalization with overlap
     ethr =  2.48E-07,  avg # of iterations =  2.9

     negative rho (up, down):  4.555E-07 0.000E+00

     total cpu time spent up to now is       10.7 secs

     total energy              =    -413.92986565 Ry
     estimated scf accuracy    <       0.00001081 Ry

     iteration # 11     ecut=    90.00 Ry     beta= 0.70
     Davidson diagonalization with overlap
     ethr =  1.13E-08,  avg # of iterations =  5.0

     negative rho (up, down):  4.580E-07 0.000E+00

     total cpu time spent up to now is       11.9 secs

     total energy              =    -413.92987825 Ry
     estimated scf accuracy    <       0.00001169 Ry

     iteration # 12     ecut=    90.00 Ry     beta= 0.70
     Davidson diagonalization with overlap
     ethr =  1.13E-08,  avg # of iterations =  1.0

     negative rho (up, down):  4.632E-07 0.000E+00

     total cpu time spent up to now is       12.6 secs

     total energy              =    -413.92987583 Ry
     estimated scf accuracy    <       0.00000568 Ry

     iteration # 13     ecut=    90.00 Ry     beta= 0.70
     Davidson diagonalization with overlap
     ethr =  5.92E-09,  avg # of iterations =  2.0

     negative rho (up, down):  4.629E-07 0.000E+00

     total cpu time spent up to now is       13.5 secs

     End of self-consistent calculation

          k = 0.0000 0.0000 0.0000 ( 31957 PWs)   bands (ev):

   -20.8516 -20.4684 -20.4684 -20.2723 -20.2723 -20.2676 -20.2298 -20.2298
   -20.2043 -19.9594 -19.9594 -19.6887  -8.4901  -8.3797  -8.3527  -8.3527
    -8.2981  -8.2981  -8.0055  -8.0055  -7.9872  -7.9872  -7.9777  -7.9347
    -6.8781  -5.8566  -5.8566  -5.3721  -5.3721  -5.1248  -5.1248  -5.0876
    -4.8511  -4.2629  -4.2629  -3.5589  -3.1081  -3.1081  -3.0283  -2.9364
    -2.9364  -2.8793  -2.8217  -2.8020  -2.8020  -2.7494  -2.7066  -2.7066

          k =-0.1498-0.0865 0.3111 ( 31953 PWs)   bands (ev):

   -20.7903 -20.4975 -20.4627 -20.3925 -20.3631 -20.3062 -20.1930 -20.1426
   -20.0949 -19.9661 -19.9317 -19.7372  -8.4596  -8.3984  -8.3696  -8.3505
    -8.2948  -8.2540  -8.0589  -8.0264  -7.9993  -7.9486  -7.9144  -7.8994
    -6.7097  -6.0156  -5.8837  -5.6243  -5.4646  -5.2278  -4.9585  -4.8958
    -4.6985  -4.2672  -4.2004  -3.7037  -3.1772  -3.1261  -3.0456  -2.9924
    -2.9778  -2.9221  -2.8710  -2.8011  -2.7784  -2.7457  -2.7032  -2.6920

          k = 0.2996 0.1730-0.6221 ( 32004 PWs)   bands (ev):

   -20.6488 -20.6124 -20.4847 -20.4457 -20.3857 -20.3532 -20.1548 -20.1116
   -20.0164 -19.9513 -19.8865 -19.8322  -8.4162  -8.4126  -8.3701  -8.3607
    -8.3014  -8.2337  -8.0576  -8.0399  -8.0066  -7.9590  -7.8638  -7.8508
    -6.3673  -6.2799  -5.9172  -5.8760  -5.4345  -5.4021  -4.8292  -4.7883
    -4.3773  -4.3356  -4.1641  -3.9440  -3.2400  -3.1411  -3.0566  -3.0537
    -2.9998  -2.9351  -2.9049  -2.8363  -2.8073  -2.7332  -2.6753  -2.6703

          k =-0.1498 0.0865 0.6221 ( 31974 PWs)   bands (ev):

   -20.6717 -20.5422 -20.5345 -20.4357 -20.4071 -20.3506 -20.1487 -20.0803
   -20.0389 -19.9378 -19.9178 -19.8180  -8.4200  -8.3953  -8.3902  -8.3625
    -8.2909  -8.2305  -8.0552  -8.0439  -8.0348  -7.9117  -7.8817  -7.8561
    -6.4110  -6.1431  -6.1042  -5.6972  -5.5692  -5.3798  -4.8594  -4.6241
    -4.5510  -4.2506  -4.1745  -3.9564  -3.2295  -3.1603  -3.0602  -3.0259
    -2.9752  -2.9655  -2.9183  -2.8164  -2.8106  -2.7409  -2.6917  -2.6533

          k = 0.2996 0.3460-0.3111 ( 31999 PWs)   bands (ev):

   -20.7061 -20.5685 -20.5137 -20.4447 -20.3787 -20.3179 -20.1663 -20.0848
   -20.0023 -19.9894 -19.8972 -19.8077  -8.4318  -8.4211  -8.3521  -8.3443
    -8.2966  -8.2405  -8.1183  -8.0948  -8.0382  -7.9089  -7.8992  -7.8568
    -6.4511  -6.1321  -5.9631  -5.7377  -5.6996  -5.2028  -4.8183  -4.6720
    -4.5710  -4.2843  -4.1790  -3.8998  -3.1751  -3.1218  -3.0702  -3.0110
    -2.9706  -2.9118  -2.8813  -2.8611  -2.7924  -2.7793  -2.6738  -2.6291

          k = 0.1498 0.2595 0.0000 ( 31974 PWs)   bands (ev):

   -20.8051 -20.5278 -20.4819 -20.3776 -20.3289 -20.2663 -20.2103 -20.1514
   -20.0915 -19.9670 -19.9342 -19.7298  -8.4708  -8.3988  -8.3614  -8.3422
    -8.2813  -8.2753  -8.1152  -8.0729  -8.0047  -7.9532  -7.9266  -7.9021
    -6.7156  -5.9143  -5.8694  -5.6484  -5.6046  -5.0710  -4.9568  -4.8203
    -4.7388  -4.2901  -4.2530  -3.6606  -3.1085  -3.0909  -3.0590  -2.9771
    -2.9395  -2.9063  -2.8488  -2.8322  -2.8014  -2.7624  -2.6709  -2.6583

          k = 0.2996-0.1730-1.2442 ( 31996 PWs)   bands (ev):

   -20.6882 -20.6700 -20.4914 -20.4249 -20.3246 -20.2958 -20.1524 -20.1487
   -20.0126 -19.9910 -19.8540 -19.8178  -8.4409  -8.4181  -8.3576  -8.3434
    -8.2586  -8.2559  -8.1832  -8.1231  -8.0228  -7.9456  -7.9135  -7.8751
    -6.3197  -6.3043  -5.9042  -5.8360  -5.5191  -5.1900  -4.7893  -4.7242
    -4.5394  -4.3902  -4.0756  -3.9063  -3.1107  -3.0807  -3.0660  -3.0068
    -2.9423  -2.9043  -2.8955  -2.8331  -2.8313  -2.7644  -2.6419  -2.6267

          k = 0.0000 0.0000 0.9332 ( 31968 PWs)   bands (ev):

   -20.6063 -20.6063 -20.5808 -20.4983 -20.3469 -20.3469 -20.0969 -20.0969
   -19.9934 -19.9103 -19.9103 -19.8841  -8.4202  -8.4202  -8.3726  -8.3192
    -8.2843  -8.2843  -8.1491  -8.0775  -8.0775  -7.8715  -7.8715  -7.8432
    -6.2120  -6.2120  -6.1359  -5.9038  -5.4717  -5.4717  -4.5926  -4.5926
    -4.4449  -4.2425  -4.2425  -4.1246  -3.1316  -3.1316  -3.0472  -3.0168
    -2.9471  -2.9471  -2.8960  -2.8408  -2.8408  -2.7292  -2.7292  -2.6067

          k = 0.4494 0.2595 0.0000 ( 31978 PWs)   bands (ev):

   -20.7190 -20.5807 -20.5731 -20.4235 -20.3008 -20.2707 -20.1868 -20.1534
   -20.0199 -19.9410 -19.9018 -19.8006  -8.4409  -8.4077  -8.3830  -8.3141
    -8.2889  -8.2346  -8.1977  -8.0968  -8.0544  -7.9271  -7.8997  -7.8919
    -6.4378  -6.0459  -6.0145  -5.8958  -5.4821  -5.1805  -4.8551  -4.7504
    -4.4505  -4.3074  -4.2102  -3.8677  -3.0995  -3.0826  -3.0719  -3.0013
    -2.9682  -2.9164  -2.8767  -2.8554  -2.7956  -2.7434  -2.6831  -2.6099

          k = 0.2996 0.1730 0.3111 ( 31935 PWs)   bands (ev):

   -20.7472 -20.5358 -20.4704 -20.4469 -20.3627 -20.3163 -20.1662 -20.1373
   -20.0512 -19.9689 -19.9063 -19.7679  -8.4447  -8.4055  -8.3749  -8.3210
    -8.3055  -8.2218  -8.1205  -8.0263  -8.0005  -7.9835  -7.9286  -7.8810
    -6.5653  -6.0161  -5.9558  -5.6625  -5.6227  -5.2139  -4.8847  -4.7502
    -4.7044  -4.2393  -4.1901  -3.7718  -3.1979  -3.1121  -3.0732  -3.0406
    -2.9855  -2.9180  -2.8615  -2.8436  -2.7788  -2.7520  -2.6837  -2.6400

          k = 0.4494-0.2595-0.9332 ( 31963 PWs)   bands (ev):

   -20.6405 -20.6297 -20.5160 -20.4760 -20.3609 -20.2907 -20.1957 -20.1135
   -19.9877 -19.9558 -19.9029 -19.8073  -8.4256  -8.4055  -8.3811  -8.3157
    -8.2880  -8.1894  -8.1676  -8.0744  -8.0147  -7.9827  -7.9190  -7.8875
    -6.3028  -6.1584  -6.0028  -5.8365  -5.5755  -5.1937  -4.9747  -4.7020
    -4.4584  -4.2247  -4.2079  -3.8772  -3.2022  -3.1254  -3.0959  -3.0463
    -3.0167  -2.9382  -2.8566  -2.8250  -2.7829  -2.7583  -2.6826  -2.6015

          k = 0.2996-0.3460-0.6221 ( 31958 PWs)   bands (ev):

   -20.6215 -20.5803 -20.5089 -20.4952 -20.3829 -20.3707 -20.1364 -20.1157
   -19.9849 -19.9640 -19.9054 -19.8170  -8.4292  -8.3778  -8.3581  -8.3492
    -8.3248  -8.1917  -8.0787  -8.0650  -7.9996  -7.9672  -7.8936  -7.8839
    -6.2569  -6.2260  -5.9534  -5.9019  -5.4866  -5.4525  -4.7920  -4.7330
    -4.4132  -4.3843  -4.1006  -3.9284  -3.2614  -3.1396  -3.0995  -3.0846
    -3.0235  -2.9512  -2.8478  -2.8281  -2.8161  -2.7310  -2.7132  -2.6033

          k = 0.0000 0.0000-1.8663 ( 31938 PWs)   bands (ev):

   -20.5918 -20.5403 -20.5051 -20.5051 -20.4356 -20.4356 -20.0743 -20.0743
   -20.0058 -20.0058 -19.9076 -19.8012  -8.4318  -8.3440  -8.3440  -8.3408
    -8.3408  -8.1608  -8.1000  -8.0873  -7.9792  -7.9792  -7.9275  -7.9275
    -6.2619  -6.1128  -5.7912  -5.7912  -5.6931  -5.6931  -4.5798  -4.5798
    -4.5449  -4.5449  -4.0436  -3.9058  -3.2614  -3.1311  -3.1311  -3.1186
    -3.1186  -2.9162  -2.8248  -2.7724  -2.7724  -2.7678  -2.7678  -2.5654

          k = 0.2996-0.3460 0.3111 ( 31999 PWs)   bands (ev):

   -20.7054 -20.5772 -20.4905 -20.4624 -20.3770 -20.3182 -20.1614 -20.0810
   -20.0380 -19.9461 -19.9137 -19.8065  -8.4400  -8.4044  -8.3654  -8.3343
    -8.3013  -8.2418  -8.1300  -8.0847  -8.0349  -7.9123  -7.8906  -7.8629
    -6.4538  -6.1222  -5.9940  -5.7080  -5.6714  -5.2539  -4.8826  -4.5903
    -4.4883  -4.3463  -4.2216  -3.8782  -3.1830  -3.0971  -3.0799  -3.0110
    -2.9714  -2.9153  -2.8839  -2.8648  -2.8171  -2.7452  -2.6775  -2.6314

     highest occupied level (ev):    -2.5654

!    total energy              =    -413.92987715 Ry
     estimated scf accuracy    <       0.00000002 Ry

     The total energy is the sum of the following terms:
     one-electron contribution =    -299.64449824 Ry
     hartree contribution      =     183.13229287 Ry
     xc contribution           =    -100.84719933 Ry
     ewald contribution        =    -196.57047245 Ry

     convergence has been achieved in  13 iterations

     Forces acting on atoms (cartesian axes, Ry/au):

     atom    1 type  2   force =    -0.01126404    0.03627560    0.02267497
     atom    2 type  2   force =     0.01126404   -0.03627560   -0.02267497
     atom    3 type  2   force =    -0.02578357   -0.02789274    0.02267497
     atom    4 type  2   force =     0.02578357    0.02789274   -0.02267497
     atom    5 type  2   force =     0.03704761   -0.00838286    0.02267497
     atom    6 type  2   force =    -0.03704761    0.00838286   -0.02267497
     atom    7 type  2   force =    -0.02841322    0.02276465   -0.01726939
     atom    8 type  2   force =     0.02841322   -0.02276465    0.01726939
     atom    9 type  2   force =    -0.00550816   -0.03598890   -0.01726939
     atom   10 type  2   force =     0.00550816    0.03598890    0.01726939
     atom   11 type  2   force =     0.03392138    0.01322424   -0.01726939
     atom   12 type  2   force =    -0.03392138   -0.01322424    0.01726939
     atom   13 type  1   force =     0.01545695   -0.02995893    0.01617388
     atom   14 type  1   force =    -0.01545695    0.02995893   -0.01617388
     atom   15 type  1   force =     0.01821672    0.02836557    0.01617388
     atom   16 type  1   force =    -0.01821672   -0.02836557   -0.01617388
     atom   17 type  1   force =    -0.03367367    0.00159336    0.01617388
     atom   18 type  1   force =     0.03367367   -0.00159336   -0.01617388
     atom   19 type  1   force =    -0.00623197   -0.00641078   -0.03729310
     atom   20 type  1   force =     0.00623197    0.00641078    0.03729310
     atom   21 type  1   force =     0.00866789   -0.00219165   -0.03729310
     atom   22 type  1   force =    -0.00866789    0.00219165    0.03729310
     atom   23 type  1   force =    -0.00243592    0.00860244   -0.03729310
     atom   24 type  1   force =     0.00243592   -0.00860244    0.03729310
     atom   25 type  1   force =    -0.01060258   -0.03564611   -0.00007813
     atom   26 type  1   force =     0.01060258    0.03564611    0.00007813
     atom   27 type  1   force =     0.03617173    0.00864095   -0.00007813
     atom   28 type  1   force =    -0.03617173   -0.00864095    0.00007813
     atom   29 type  1   force =    -0.02556915    0.02700516   -0.00007813
     atom   30 type  1   force =     0.02556915   -0.02700516    0.00007813
     atom   31 type  1   force =    -0.02570837    0.02371379    0.01945699
     atom   32 type  1   force =     0.02570837   -0.02371379   -0.01945699
     atom   33 type  1   force =    -0.00768256   -0.03412100    0.01945699
     atom   34 type  1   force =     0.00768256    0.03412100   -0.01945699
     atom   35 type  1   force =     0.03339093    0.01040720    0.01945699
     atom   36 type  1   force =    -0.03339093   -0.01040720   -0.01945699

     Total force =     0.237921     Total SCF correction =     0.000107


     Computing stress (Cartesian axis) and pressure

          total   stress  (Ry/bohr**3)                   (kbar)     P=      -60.69
  -0.00042748   0.00000000  -0.00000000          -62.89        0.00       -0.00
  -0.00000000  -0.00042748  -0.00000000           -0.00      -62.89       -0.00
  -0.00000000  -0.00000000  -0.00038270           -0.00       -0.00      -56.30


     Writing all to output data dir ./iceII/iceII.save/ :
     XML data file, charge density, pseudopotentials, collected wavefunctions

     init_run     :      1.24s CPU      1.31s WALL (       1 calls)
     electrons    :     11.62s CPU     12.00s WALL (       1 calls)
     forces       :      0.15s CPU      0.16s WALL (       1 calls)
     stress       :      0.94s CPU      0.96s WALL (       1 calls)

     Called by init_run:
     wfcinit      :      0.37s CPU      0.37s WALL (       1 calls)
     potinit      :      0.03s CPU      0.05s WALL (       1 calls)
     hinit0       :      0.66s CPU      0.68s WALL (       1 calls)

     Called by electrons:
     c_bands      :      9.61s CPU      9.85s WALL (      13 calls)
     sum_band     :      1.48s CPU      1.52s WALL (      13 calls)
     v_of_rho     :      0.34s CPU      0.41s WALL (      14 calls)
     newd         :      0.10s CPU      0.10s WALL (      14 calls)
     mix_rho      :      0.06s CPU      0.06s WALL (      13 calls)

     Called by c_bands:
     init_us_2    :      0.18s CPU      0.20s WALL (     116 calls)
     cegterg      :      9.29s CPU      9.48s WALL (      52 calls)

     Called by *egterg:
     cdiaghg      :      0.69s CPU      0.69s WALL (     179 calls)
     h_psi        :      7.31s CPU      7.39s WALL (     183 calls)
     s_psi        :      0.31s CPU      0.32s WALL (     183 calls)
     g_psi        :      0.02s CPU      0.02s WALL (     127 calls)

     Called by h_psi:
     h_psi:calbec :      0.52s CPU      0.53s WALL (     183 calls)
     vloc_psi     :      6.40s CPU      6.47s WALL (     183 calls)
     add_vuspsi   :      0.33s CPU      0.33s WALL (     183 calls)

     General routines
     calbec       :      0.73s CPU      0.74s WALL (     255 calls)
     fft          :      0.88s CPU      0.92s WALL (     162 calls)
     ffts         :      0.03s CPU      0.03s WALL (      13 calls)
     fftw         :      6.73s CPU      6.80s WALL (   17492 calls)

     Parallel routines

     PWSCF        :     14.27s CPU     15.13s WALL


   This run was terminated on:  18: 1:55  23Mar2026            

=------------------------------------------------------------------------------=
   JOB DONE.
=------------------------------------------------------------------------------=
