
     Program PWSCF v.7.3.1 starts on 23Mar2026 at 18: 1:59 

     This program is part of the open-source Quantum ESPRESSO suite
     for quantum simulation of materials; please cite
         "P. Giannozzi et al., J. Phys.:Condens. Matter 21 395502 (2009);
         "P. Giannozzi et al., J. Phys.:Condens. Matter 29 465901 (2017);
         "P. Giannozzi et al., J. Chem. Phys. 152 154105 (2020);
          URL http://www.quantum-espresso.org", 
     in publications or presentations arising from this work. More details at
     http://www.quantum-espresso.org/quote

     Parallel version (MPI), running on   128 processors

     MPI processes distributed on     1 nodes
     242797 MiB available memory on the printing compute node when the environment starts

     Waiting for input...
     Reading input from standard input

     Current dimensions of program PWSCF are:
     Max number of different atomic species (ntypx) = 10
     Max number of k-points (npk) =  40000
     Max angular momentum in pseudopotentials (lmaxx) =  4

     K-points division:     npool     =       4
     R & G space division:  proc/nbgrp/npool/nimage =      32
     Subspace diagonalization in iterative solution of the eigenvalue problem:
     a serial algorithm will be used


     Parallelization info
     --------------------
     sticks:   dense  smooth     PW     G-vecs:    dense   smooth      PW
     Min         188     188     55                 8038     8038    1271
     Max         189     189     56                 8040     8040    1273
     Sum        6023    6023   1763               257245   257245   40711

     Using Slab Decomposition



     bravais-lattice index     =            5
     lattice parameter (alat)  =      15.1137  a.u.
     unit-cell volume          =    2230.5247 (a.u.)^3
     number of atoms/cell      =           36
     number of atomic types    =            2
     number of electrons       =        96.00
     number of Kohn-Sham states=           48
     kinetic-energy cutoff     =      90.0000  Ry
     charge density cutoff     =     360.0000  Ry
     scf convergence threshold =      1.0E-07
     mixing beta               =       0.7000
     number of iterations used =            8  plain     mixing
     Exchange-correlation=  SLA  PW   PBE  PBE
                           (   1   4   3   4   0   0   0)

     celldm(1)=  15.113726  celldm(2)=   0.000000  celldm(3)=   0.000000
     celldm(4)=  -0.392337  celldm(5)=   0.000000  celldm(6)=   0.000000

     crystal axes: (cart. coord. in units of alat)
               a(1) = (   0.834367  -0.481722   0.267909 )  
               a(2) = (   0.000000   0.963444   0.267909 )  
               a(3) = (  -0.834367  -0.481722   0.267909 )  

     reciprocal axes: (cart. coord. in units 2 pi/alat)
               b(1) = (  0.599257 -0.345981  1.244203 )  
               b(2) = ( -0.000000  0.691962  1.244203 )  
               b(3) = ( -0.599257 -0.345981  1.244203 )  


     PseudoPot. # 1 for H  read from file:
     ./H.pbe-van_ak.UPF
     MD5 check sum: 077eb6d537518a38cb46c6de387227b7
     Pseudo is Ultrasoft, Zval =  1.0
     Generated by new atomic code, or converted to UPF format
     Using radial grid of  615 points,  1 beta functions with: 
                l(1) =   0
     Q(r) pseudized with  8 coefficients,  rinner =    0.800

     PseudoPot. # 2 for O  read from file:
     ./O.pbe-van_ak.UPF
     MD5 check sum: 78c19812648e8988a0fe644b0f25305e
     Pseudo is Ultrasoft, Zval =  6.0
     Generated by new atomic code, or converted to UPF format
     Using radial grid of  737 points,  4 beta functions with: 
                l(1) =   0
                l(2) =   0
                l(3) =   1
                l(4) =   1
     Q(r) pseudized with  8 coefficients,  rinner =    0.800   0.800   0.800


     atomic species   valence    mass     pseudopotential
     H                 1.00     1.00800     H ( 1.00)
     O                 6.00    16.00000     O ( 1.00)

      6 Sym. Ops., with inversion, found



   Cartesian axes

     site n.     atom                  positions (alat units)
         1        O      tau(   1) = (  -0.4910119  -0.5205722   0.3052394  )
         2        O      tau(   2) = (   0.4910119   0.5205722   0.4984877  )
         3        O      tau(   3) = (   0.6963347  -0.1649427   0.3052394  )
         4        O      tau(   4) = (  -0.6963347   0.1649427   0.4984877  )
         5        O      tau(   5) = (  -0.2053228   0.6855149   0.3052394  )
         6        O      tau(   6) = (   0.2053228  -0.6855149   0.4984877  )
         7        O      tau(   7) = (   0.1229870   0.3303028   0.4196306  )
         8        O      tau(   8) = (  -0.1229870  -0.3303028   0.3840965  )
         9        O      tau(   9) = (  -0.3475441  -0.0586415   0.4196306  )
        10        O      tau(  10) = (   0.3475441   0.0586415   0.3840965  )
        11        O      tau(  11) = (   0.2245571  -0.2716613   0.4196306  )
        12        O      tau(  12) = (  -0.2245571   0.2716612   0.3840965  )
        13        H      tau(  13) = (  -0.5446961  -0.4126715   0.2597134  )
        14        H      tau(  14) = (   0.5446961   0.4126715   0.5440137  )
        15        H      tau(  15) = (   0.6297321  -0.2653849   0.2597134  )
        16        H      tau(  16) = (  -0.6297321   0.2653849   0.5440137  )
        17        H      tau(  17) = (  -0.0850360   0.6780564   0.2597134  )
        18        H      tau(  18) = (   0.0850360  -0.6780564   0.5440137  )
        19        H      tau(  19) = (  -0.4726389  -0.4926041   0.4288765  )
        20        H      tau(  20) = (   0.4726389   0.4926042   0.3748506  )
        21        H      tau(  21) = (   0.6629272  -0.1630152   0.4288765  )
        22        H      tau(  22) = (  -0.6629272   0.1630152   0.3748506  )
        23        H      tau(  23) = (  -0.1902883   0.6556194   0.4288765  )
        24        H      tau(  24) = (   0.1902883  -0.6556194   0.3748506  )
        25        H      tau(  25) = (   0.2676988  -0.1507235   0.4151121  )
        26        H      tau(  26) = (  -0.2676988   0.1507234   0.3886151  )
        27        H      tau(  27) = (  -0.0033191   0.3071957   0.4151121  )
        28        H      tau(  28) = (   0.0033191  -0.3071957   0.3886151  )
        29        H      tau(  29) = (  -0.2643797  -0.1564722   0.4151121  )
        30        H      tau(  30) = (   0.2643797   0.1564723   0.3886151  )
        31        H      tau(  31) = (   0.3102941  -0.3416444   0.3555952  )
        32        H      tau(  32) = (  -0.3102941   0.3416444   0.4481319  )
        33        H      tau(  33) = (   0.1407257   0.4395448   0.3555952  )
        34        H      tau(  34) = (  -0.1407257  -0.4395448   0.4481319  )
        35        H      tau(  35) = (  -0.4510198  -0.0979003   0.3555952  )
        36        H      tau(  36) = (   0.4510198   0.0979003   0.4481319  )

     number of k points=    14
                       cart. coord. in units 2pi/alat
        k(    1) = (   0.0000000   0.0000000   0.0000000), wk =   0.0312500
        k(    2) = (  -0.1498141  -0.0864952   0.3110508), wk =   0.1875000
        k(    3) = (   0.2996283   0.1729905  -0.6221017), wk =   0.0937500
        k(    4) = (  -0.1498141   0.0864952   0.6221017), wk =   0.1875000
        k(    5) = (   0.2996283   0.3459809  -0.3110508), wk =   0.1875000
        k(    6) = (   0.1498141   0.2594857   0.0000000), wk =   0.1875000
        k(    7) = (   0.2996283  -0.1729905  -1.2442034), wk =   0.0937500
        k(    8) = (   0.0000000   0.0000000   0.9331525), wk =   0.0625000
        k(    9) = (   0.4494424   0.2594857   0.0000000), wk =   0.1875000
        k(   10) = (   0.2996283   0.1729905   0.3110508), wk =   0.1875000
        k(   11) = (   0.4494424  -0.2594857  -0.9331525), wk =   0.1875000
        k(   12) = (   0.2996283  -0.3459809  -0.6221017), wk =   0.1875000
        k(   13) = (   0.0000000   0.0000000  -1.8663050), wk =   0.0312500
        k(   14) = (   0.2996283  -0.3459809   0.3110508), wk =   0.1875000

     Dense  grid:   257245 G-vectors     FFT dimensions: (  96,  96,  96)

     Estimated max dynamical RAM per process >      16.80 MB

     Estimated total dynamical RAM >       1.92 GB

     Initial potential from superposition of free atoms

     starting charge      95.9998, renormalised to      96.0000
     Starting wfcs are   72 randomized atomic wfcs

     total cpu time spent up to now is        1.5 secs

     per-process dynamical memory:    20.6 Mb

     Self-consistent Calculation

     iteration #  1     ecut=    90.00 Ry     beta= 0.70
     Davidson diagonalization with overlap
     ethr =  1.00E-02,  avg # of iterations =  2.0

     negative rho (up, down):  3.584E-08 0.000E+00

     total cpu time spent up to now is        2.4 secs

     total energy              =    -412.30233061 Ry
     estimated scf accuracy    <       3.81521549 Ry

     iteration #  2     ecut=    90.00 Ry     beta= 0.70
     Davidson diagonalization with overlap
     ethr =  3.97E-03,  avg # of iterations =  3.0

     total cpu time spent up to now is        3.5 secs

     total energy              =    -413.50159793 Ry
     estimated scf accuracy    <       2.60003209 Ry

     iteration #  3     ecut=    90.00 Ry     beta= 0.70
     Davidson diagonalization with overlap
     ethr =  2.71E-03,  avg # of iterations =  2.0

     negative rho (up, down):  3.732E-08 0.000E+00

     total cpu time spent up to now is        4.4 secs

     total energy              =    -413.82974810 Ry
     estimated scf accuracy    <       0.11293391 Ry

     iteration #  4     ecut=    90.00 Ry     beta= 0.70
     Davidson diagonalization with overlap
     ethr =  1.18E-04,  avg # of iterations =  4.0

     negative rho (up, down):  1.863E-07 0.000E+00

     total cpu time spent up to now is        5.7 secs

     total energy              =    -413.91800179 Ry
     estimated scf accuracy    <       0.13629276 Ry

     iteration #  5     ecut=    90.00 Ry     beta= 0.70
     Davidson diagonalization with overlap
     ethr =  1.18E-04,  avg # of iterations =  2.0

     negative rho (up, down):  2.695E-07 0.000E+00

     total cpu time spent up to now is        6.5 secs

     total energy              =    -413.92138361 Ry
     estimated scf accuracy    <       0.02057603 Ry

     iteration #  6     ecut=    90.00 Ry     beta= 0.70
     Davidson diagonalization with overlap
     ethr =  2.14E-05,  avg # of iterations =  2.0

     negative rho (up, down):  3.659E-07 0.000E+00

     total cpu time spent up to now is        7.3 secs

     total energy              =    -413.92310315 Ry
     estimated scf accuracy    <       0.00288992 Ry

     iteration #  7     ecut=    90.00 Ry     beta= 0.70
     Davidson diagonalization with overlap
     ethr =  3.01E-06,  avg # of iterations =  3.0

     negative rho (up, down):  3.509E-07 0.000E+00

     total cpu time spent up to now is        8.4 secs

     total energy              =    -413.92525900 Ry
     estimated scf accuracy    <       0.00120356 Ry

     iteration #  8     ecut=    90.00 Ry     beta= 0.70
     Davidson diagonalization with overlap
     ethr =  1.25E-06,  avg # of iterations =  1.4

     negative rho (up, down):  2.953E-07 0.000E+00

     total cpu time spent up to now is        9.1 secs

     total energy              =    -413.92456088 Ry
     estimated scf accuracy    <       0.00182256 Ry

     iteration #  9     ecut=    90.00 Ry     beta= 0.70
     Davidson diagonalization with overlap
     ethr =  1.25E-06,  avg # of iterations =  2.0

     negative rho (up, down):  2.775E-07 0.000E+00

     total cpu time spent up to now is        9.9 secs

     total energy              =    -413.92462592 Ry
     estimated scf accuracy    <       0.00022714 Ry

     iteration # 10     ecut=    90.00 Ry     beta= 0.70
     Davidson diagonalization with overlap
     ethr =  2.37E-07,  avg # of iterations =  3.0

     negative rho (up, down):  2.746E-07 0.000E+00

     total cpu time spent up to now is       10.9 secs

     total energy              =    -413.92468719 Ry
     estimated scf accuracy    <       0.00000264 Ry

     iteration # 11     ecut=    90.00 Ry     beta= 0.70
     Davidson diagonalization with overlap
     ethr =  2.75E-09,  avg # of iterations =  6.0

     negative rho (up, down):  2.754E-07 0.000E+00

     total cpu time spent up to now is       12.5 secs

     total energy              =    -413.92469422 Ry
     estimated scf accuracy    <       0.00000475 Ry

     iteration # 12     ecut=    90.00 Ry     beta= 0.70
     Davidson diagonalization with overlap
     ethr =  2.75E-09,  avg # of iterations =  1.0

     negative rho (up, down):  2.778E-07 0.000E+00

     total cpu time spent up to now is       13.1 secs

     total energy              =    -413.92469339 Ry
     estimated scf accuracy    <       0.00000320 Ry

     iteration # 13     ecut=    90.00 Ry     beta= 0.70
     Davidson diagonalization with overlap
     ethr =  2.75E-09,  avg # of iterations =  2.0

     negative rho (up, down):  2.788E-07 0.000E+00

     total cpu time spent up to now is       13.9 secs

     total energy              =    -413.92469336 Ry
     estimated scf accuracy    <       0.00000075 Ry

     iteration # 14     ecut=    90.00 Ry     beta= 0.70
     Davidson diagonalization with overlap
     ethr =  7.82E-10,  avg # of iterations =  2.0

     negative rho (up, down):  2.789E-07 0.000E+00

     total cpu time spent up to now is       14.6 secs

     total energy              =    -413.92469339 Ry
     estimated scf accuracy    <       0.00000017 Ry

     iteration # 15     ecut=    90.00 Ry     beta= 0.70
     Davidson diagonalization with overlap
     ethr =  1.82E-10,  avg # of iterations =  2.0

     negative rho (up, down):  2.794E-07 0.000E+00

     total cpu time spent up to now is       15.5 secs

     End of self-consistent calculation

          k = 0.0000 0.0000 0.0000 ( 32131 PWs)   bands (ev):

   -20.8523 -20.4739 -20.4739 -20.2794 -20.2794 -20.2751 -20.2376 -20.2376
   -20.2123 -19.9700 -19.9700 -19.7025  -8.4960  -8.3864  -8.3589  -8.3589
    -8.3058  -8.3058  -8.0144  -8.0144  -7.9959  -7.9959  -7.9861  -7.9437
    -6.8885  -5.8736  -5.8736  -5.3925  -5.3925  -5.1464  -5.1464  -5.1102
    -4.8737  -4.2892  -4.2892  -3.5876  -3.1302  -3.1302  -3.0511  -2.9599
    -2.9599  -2.9031  -2.8462  -2.8260  -2.8260  -2.7753  -2.7323  -2.7323

          k =-0.1498-0.0865 0.3111 ( 32144 PWs)   bands (ev):

   -20.7917 -20.5026 -20.4684 -20.3982 -20.3692 -20.3131 -20.2012 -20.1513
   -20.1042 -19.9766 -19.9426 -19.7504  -8.4659  -8.4047  -8.3761  -8.3571
    -8.3025  -8.2618  -8.0669  -8.0348  -8.0079  -7.9577  -7.9237  -7.9091
    -6.7213  -6.0317  -5.9006  -5.6431  -5.4847  -5.2492  -4.9807  -4.9188
    -4.7219  -4.2935  -4.2270  -3.7322  -3.1985  -3.1479  -3.0681  -3.0151
    -3.0009  -2.9457  -2.8956  -2.8254  -2.8033  -2.7707  -2.7287  -2.7176

          k = 0.2996 0.1730-0.6221 ( 32140 PWs)   bands (ev):

   -20.6522 -20.6157 -20.4901 -20.4510 -20.3918 -20.3593 -20.1635 -20.1204
   -20.0267 -19.9619 -19.8982 -19.8441  -8.4224  -8.4191  -8.3767  -8.3675
    -8.3090  -8.2416  -8.0654  -8.0481  -8.0152  -7.9679  -7.8739  -7.8611
    -6.3808  -6.2950  -5.9343  -5.8929  -5.4544  -5.4225  -4.8522  -4.8117
    -4.4030  -4.3609  -4.1903  -3.9719  -3.2608  -3.1625  -3.0788  -3.0759
    -3.0226  -2.9593  -2.9286  -2.8606  -2.8317  -2.7581  -2.7009  -2.6959

          k =-0.1498 0.0865 0.6221 ( 32154 PWs)   bands (ev):

   -20.6746 -20.5466 -20.5391 -20.4413 -20.4127 -20.3569 -20.1573 -20.0899
   -20.0487 -19.9487 -19.9289 -19.8301  -8.4264  -8.4017  -8.3970  -8.3690
    -8.2986  -8.2386  -8.0630  -8.0520  -8.0429  -7.9214  -7.8916  -7.8662
    -6.4247  -6.1584  -6.1199  -5.7154  -5.5887  -5.4001  -4.8823  -4.6481
    -4.5756  -4.2767  -4.2012  -3.9837  -3.2503  -3.1815  -3.0824  -3.0485
    -2.9983  -2.9891  -2.9421  -2.8407  -2.8351  -2.7657  -2.7172  -2.6791

          k = 0.2996 0.3460-0.3111 ( 32184 PWs)   bands (ev):

   -20.7084 -20.5726 -20.5186 -20.4499 -20.3848 -20.3247 -20.1748 -20.0944
   -20.0127 -19.9996 -19.9085 -19.8200  -8.4383  -8.4275  -8.3590  -8.3510
    -8.3041  -8.2482  -8.1256  -8.1024  -8.0463  -7.9184  -7.9088  -7.8670
    -6.4645  -6.1475  -5.9802  -5.7560  -5.7177  -5.2243  -4.8418  -4.6955
    -4.5956  -4.3099  -4.2059  -3.9279  -3.1966  -3.1435  -3.0924  -3.0338
    -2.9936  -2.9356  -2.9052  -2.8852  -2.8171  -2.8040  -2.6995  -2.6552

          k = 0.1498 0.2595 0.0000 ( 32148 PWs)   bands (ev):

   -20.8063 -20.5325 -20.4871 -20.3837 -20.3355 -20.2735 -20.2184 -20.1602
   -20.1009 -19.9775 -19.9450 -19.7431  -8.4769  -8.4052  -8.3678  -8.3492
    -8.2887  -8.2829  -8.1226  -8.0809  -8.0129  -7.9624  -7.9357  -7.9117
    -6.7273  -5.9309  -5.8869  -5.6671  -5.6232  -5.0930  -4.9799  -4.8437
    -4.7621  -4.3162  -4.2792  -3.6897  -3.1306  -3.1132  -3.0813  -3.0001
    -2.9628  -2.9299  -2.8728  -2.8563  -2.8264  -2.7876  -2.6967  -2.6842

          k = 0.2996-0.1730-1.2442 ( 32192 PWs)   bands (ev):

   -20.6907 -20.6729 -20.4964 -20.4307 -20.3313 -20.3028 -20.1613 -20.1574
   -20.0230 -20.0011 -19.8659 -19.8299  -8.4472  -8.4247  -8.3643  -8.3504
    -8.2660  -8.2633  -8.1898  -8.1305  -8.0309  -7.9548  -7.9228  -7.8850
    -6.3341  -6.3189  -5.9213  -5.8536  -5.5382  -5.2113  -4.8131  -4.7482
    -4.5643  -4.4153  -4.1026  -3.9346  -3.1327  -3.1029  -3.0886  -3.0294
    -2.9653  -2.9279  -2.9194  -2.8579  -2.8556  -2.7895  -2.6681  -2.6527

          k = 0.0000 0.0000 0.9332 ( 32139 PWs)   bands (ev):

   -20.6098 -20.6098 -20.5852 -20.5026 -20.3536 -20.3536 -20.1062 -20.1062
   -20.0043 -19.9214 -19.9214 -19.8952  -8.4266  -8.4266  -8.3796  -8.3259
    -8.2918  -8.2918  -8.1562  -8.0851  -8.0851  -7.8815  -7.8815  -7.8535
    -6.2269  -6.2269  -6.1508  -5.9220  -5.4913  -5.4913  -4.6171  -4.6171
    -4.4689  -4.2690  -4.2690  -4.1515  -3.1533  -3.1533  -3.0699  -3.0396
    -2.9704  -2.9704  -2.9201  -2.8649  -2.8649  -2.7543  -2.7543  -2.6330

          k = 0.4494 0.2595 0.0000 ( 32183 PWs)   bands (ev):

   -20.7212 -20.5848 -20.5770 -20.4292 -20.3081 -20.2780 -20.1951 -20.1619
   -20.0304 -19.9518 -19.9131 -19.8130  -8.4474  -8.4143  -8.3897  -8.3213
    -8.2961  -8.2424  -8.2041  -8.1043  -8.0622  -7.9364  -7.9092  -7.9016
    -6.4515  -6.0619  -6.0310  -5.9132  -5.5014  -5.2017  -4.8786  -4.7743
    -4.4754  -4.3334  -4.2366  -3.8961  -3.1217  -3.1048  -3.0942  -3.0239
    -2.9913  -2.9400  -2.9005  -2.8795  -2.8207  -2.7686  -2.7088  -2.6362

          k = 0.2996 0.1730 0.3111 ( 32164 PWs)   bands (ev):

   -20.7491 -20.5405 -20.4758 -20.4522 -20.3687 -20.3231 -20.1747 -20.1464
   -20.0607 -19.9797 -19.9175 -19.7807  -8.4511  -8.4119  -8.3815  -8.3280
    -8.3131  -8.2298  -8.1278  -8.0347  -8.0090  -7.9922  -7.9376  -7.8909
    -6.5781  -6.0326  -5.9724  -5.6808  -5.6415  -5.2355  -4.9075  -4.7740
    -4.7283  -4.2653  -4.2169  -3.8005  -3.2192  -3.1339  -3.0953  -3.0629
    -3.0084  -2.9416  -2.8857  -2.8679  -2.8037  -2.7771  -2.7093  -2.6659

          k = 0.4494-0.2595-0.9332 ( 32162 PWs)   bands (ev):

   -20.6439 -20.6328 -20.5207 -20.4811 -20.3671 -20.2977 -20.2039 -20.1228
   -19.9979 -19.9670 -19.9142 -19.8195  -8.4321  -8.4122  -8.3878  -8.3231
    -8.2956  -8.1974  -8.1745  -8.0821  -8.0229  -7.9914  -7.9283  -7.8973
    -6.3175  -6.1739  -6.0194  -5.8541  -5.5944  -5.2150  -4.9973  -4.7260
    -4.4838  -4.2505  -4.2344  -3.9056  -3.2237  -3.1469  -3.1178  -3.0686
    -3.0392  -2.9615  -2.8808  -2.8494  -2.8078  -2.7834  -2.7082  -2.6278

          k = 0.2996-0.3460-0.6221 ( 32168 PWs)   bands (ev):

   -20.6253 -20.5839 -20.5139 -20.5000 -20.3888 -20.3766 -20.1453 -20.1247
   -19.9953 -19.9745 -19.9171 -19.8290  -8.4356  -8.3845  -8.3649  -8.3562
    -8.3322  -8.2000  -8.0861  -8.0730  -8.0082  -7.9761  -7.9033  -7.8937
    -6.2719  -6.2411  -5.9701  -5.9189  -5.5062  -5.4724  -4.8154  -4.7571
    -4.4385  -4.4097  -4.1272  -3.9562  -3.2823  -3.1610  -3.1213  -3.1065
    -3.0464  -2.9744  -2.8720  -2.8525  -2.8406  -2.7561  -2.7385  -2.6296

          k = 0.0000 0.0000-1.8663 ( 32118 PWs)   bands (ev):

   -20.5963 -20.5444 -20.5101 -20.5101 -20.4405 -20.4405 -20.0841 -20.0841
   -20.0156 -20.0156 -19.9194 -19.8134  -8.4383  -8.3513  -8.3513  -8.3478
    -8.3478  -8.1691  -8.1070  -8.0952  -7.9880  -7.9880  -7.9366  -7.9366
    -6.2771  -6.1286  -5.8089  -5.8089  -5.7115  -5.7115  -4.6043  -4.6043
    -4.5702  -4.5702  -4.0703  -3.9335  -3.2828  -3.1525  -3.1525  -3.1400
    -3.1400  -2.9396  -2.8492  -2.7971  -2.7971  -2.7928  -2.7928  -2.5921

          k = 0.2996-0.3460 0.3111 ( 32184 PWs)   bands (ev):

   -20.7077 -20.5813 -20.4955 -20.4675 -20.3831 -20.3250 -20.1699 -20.0908
   -20.0477 -19.9569 -19.9248 -19.8188  -8.4464  -8.4109  -8.3721  -8.3416
    -8.3084  -8.2496  -8.1372  -8.0924  -8.0429  -7.9218  -7.9003  -7.8730
    -6.4672  -6.1380  -6.0102  -5.7265  -5.6901  -5.2748  -4.9054  -4.6151
    -4.5133  -4.3719  -4.2474  -3.9066  -3.2044  -3.1190  -3.1022  -3.0337
    -2.9943  -2.9390  -2.9081  -2.8888  -2.8416  -2.7702  -2.7032  -2.6575

     highest occupied level (ev):    -2.5921

!    total energy              =    -413.92469337 Ry
     estimated scf accuracy    <       0.00000005 Ry

     The total energy is the sum of the following terms:
     one-electron contribution =    -300.33031216 Ry
     hartree contribution      =     183.39146000 Ry
     xc contribution           =    -100.79780158 Ry
     ewald contribution        =    -196.18803963 Ry

     convergence has been achieved in  15 iterations

     Forces acting on atoms (cartesian axes, Ry/au):

     atom    1 type  2   force =    -0.01202427    0.03876302    0.02423663
     atom    2 type  2   force =     0.01202427   -0.03876302   -0.02423663
     atom    3 type  2   force =    -0.02755762   -0.02979483    0.02423663
     atom    4 type  2   force =     0.02755762    0.02979483   -0.02423663
     atom    5 type  2   force =     0.03958189   -0.00896819    0.02423663
     atom    6 type  2   force =    -0.03958189    0.00896819   -0.02423663
     atom    7 type  2   force =    -0.03047611    0.02431443   -0.01847819
     atom    8 type  2   force =     0.03047611   -0.02431443    0.01847819
     atom    9 type  2   force =    -0.00581886   -0.03855030   -0.01847819
     atom   10 type  2   force =     0.00581886    0.03855030    0.01847819
     atom   11 type  2   force =     0.03629497    0.01423586   -0.01847819
     atom   12 type  2   force =    -0.03629497   -0.01423586    0.01847819
     atom   13 type  1   force =     0.01650581   -0.03202491    0.01725711
     atom   14 type  1   force =    -0.01650581    0.03202491   -0.01725711
     atom   15 type  1   force =     0.01948148    0.03030690    0.01725711
     atom   16 type  1   force =    -0.01948148   -0.03030690   -0.01725711
     atom   17 type  1   force =    -0.03598729    0.00171800    0.01725711
     atom   18 type  1   force =     0.03598729   -0.00171800   -0.01725711
     atom   19 type  1   force =    -0.00670054   -0.00684445   -0.03988109
     atom   20 type  1   force =     0.00670054    0.00684445    0.03988109
     atom   21 type  1   force =     0.00927774   -0.00238061   -0.03988109
     atom   22 type  1   force =    -0.00927774    0.00238061    0.03988109
     atom   23 type  1   force =    -0.00257720    0.00922506   -0.03988109
     atom   24 type  1   force =     0.00257720   -0.00922506    0.03988109
     atom   25 type  1   force =    -0.01134326   -0.03814276   -0.00007163
     atom   26 type  1   force =     0.01134326    0.03814276    0.00007163
     atom   27 type  1   force =     0.03870423    0.00924783   -0.00007163
     atom   28 type  1   force =    -0.03870423   -0.00924783    0.00007163
     atom   29 type  1   force =    -0.02736097    0.02889493   -0.00007163
     atom   30 type  1   force =     0.02736097   -0.02889493    0.00007163
     atom   31 type  1   force =    -0.02743383    0.02533747    0.02078270
     atom   32 type  1   force =     0.02743383   -0.02533747   -0.02078270
     atom   33 type  1   force =    -0.00822598   -0.03642713    0.02078270
     atom   34 type  1   force =     0.00822598    0.03642713   -0.02078270
     atom   35 type  1   force =     0.03565981    0.01108966    0.02078270
     atom   36 type  1   force =    -0.03565981   -0.01108966   -0.02078270

     Total force =     0.254372     Total SCF correction =     0.000123


     Computing stress (Cartesian axis) and pressure

          total   stress  (Ry/bohr**3)                   (kbar)     P=      -63.95
  -0.00045002  -0.00000000  -0.00000000          -66.20       -0.00       -0.00
   0.00000000  -0.00045002  -0.00000000            0.00      -66.20       -0.00
   0.00000000  -0.00000000  -0.00040419            0.00       -0.00      -59.46


     Writing all to output data dir ./iceII/iceII.save/ :
     XML data file, charge density, pseudopotentials, collected wavefunctions

     init_run     :      1.24s CPU      1.32s WALL (       1 calls)
     electrons    :     13.58s CPU     13.99s WALL (       1 calls)
     forces       :      0.14s CPU      0.16s WALL (       1 calls)
     stress       :      0.94s CPU      0.96s WALL (       1 calls)

     Called by init_run:
     wfcinit      :      0.36s CPU      0.38s WALL (       1 calls)
     potinit      :      0.04s CPU      0.05s WALL (       1 calls)
     hinit0       :      0.67s CPU      0.68s WALL (       1 calls)

     Called by electrons:
     c_bands      :     11.20s CPU     11.48s WALL (      15 calls)
     sum_band     :      1.76s CPU      1.78s WALL (      15 calls)
     v_of_rho     :      0.40s CPU      0.45s WALL (      16 calls)
     newd         :      0.12s CPU      0.12s WALL (      16 calls)
     mix_rho      :      0.07s CPU      0.07s WALL (      15 calls)

     Called by c_bands:
     init_us_2    :      0.19s CPU      0.23s WALL (     132 calls)
     cegterg      :     10.85s CPU     11.06s WALL (      60 calls)

     Called by *egterg:
     cdiaghg      :      0.79s CPU      0.79s WALL (     211 calls)
     h_psi        :      8.42s CPU      8.56s WALL (     215 calls)
     s_psi        :      0.36s CPU      0.38s WALL (     215 calls)
     g_psi        :      0.02s CPU      0.02s WALL (     151 calls)

     Called by h_psi:
     h_psi:calbec :      0.62s CPU      0.62s WALL (     215 calls)
     vloc_psi     :      7.36s CPU      7.48s WALL (     215 calls)
     add_vuspsi   :      0.37s CPU      0.37s WALL (     215 calls)

     General routines
     calbec       :      0.85s CPU      0.86s WALL (     295 calls)
     fft          :      0.89s CPU      0.94s WALL (     184 calls)
     ffts         :      0.03s CPU      0.03s WALL (      15 calls)
     fftw         :      7.76s CPU      7.86s WALL (   20106 calls)

     Parallel routines

     PWSCF        :     16.19s CPU     17.04s WALL


   This run was terminated on:  18: 2:16  23Mar2026            

=------------------------------------------------------------------------------=
   JOB DONE.
=------------------------------------------------------------------------------=
