
     Program PWSCF v.7.3.1 starts on 31Mar2026 at 20: 3:50 

     This program is part of the open-source Quantum ESPRESSO suite
     for quantum simulation of materials; please cite
         "P. Giannozzi et al., J. Phys.:Condens. Matter 21 395502 (2009);
         "P. Giannozzi et al., J. Phys.:Condens. Matter 29 465901 (2017);
         "P. Giannozzi et al., J. Chem. Phys. 152 154105 (2020);
          URL http://www.quantum-espresso.org", 
     in publications or presentations arising from this work. More details at
     http://www.quantum-espresso.org/quote

     Parallel version (MPI), running on   128 processors

     MPI processes distributed on     1 nodes
     498373 MiB available memory on the printing compute node when the environment starts

     Waiting for input...
     Reading input from standard input

     Current dimensions of program PWSCF are:
     Max number of different atomic species (ntypx) = 10
     Max number of k-points (npk) =  40000
     Max angular momentum in pseudopotentials (lmaxx) =  4

     File ./iceII/iceII.update deleted, as requested

     File ./iceII/iceII.bfgs deleted, as requested

     K-points division:     npool     =       4
     R & G space division:  proc/nbgrp/npool/nimage =      32
     Subspace diagonalization in iterative solution of the eigenvalue problem:
     a serial algorithm will be used


     Parallelization info
     --------------------
     sticks:   dense  smooth     PW     G-vecs:    dense   smooth      PW
     Min         192     192     55                 8298     8298    1305
     Max         193     193     56                 8300     8300    1310
     Sum        6155    6155   1787               265585   265585   41857

     Using Slab Decomposition



     bravais-lattice index     =            5
     lattice parameter (alat)  =      15.2754  a.u.
     unit-cell volume          =    2302.8961 (a.u.)^3
     number of atoms/cell      =           36
     number of atomic types    =            2
     number of electrons       =        96.00
     number of Kohn-Sham states=           48
     kinetic-energy cutoff     =      90.0000  Ry
     charge density cutoff     =     360.0000  Ry
     scf convergence threshold =      1.0E-07
     mixing beta               =       0.7000
     number of iterations used =            8  plain     mixing
     energy convergence thresh.=      1.0E-04
     force convergence thresh. =      1.0E-04
     Exchange-correlation=  SLA  PW   PBE  PBE
                           (   1   4   3   4   0   0   0)
     nstep                     =           50


     celldm(1)=  15.275449  celldm(2)=   0.000000  celldm(3)=   0.000000
     celldm(4)=  -0.392337  celldm(5)=   0.000000  celldm(6)=   0.000000

     crystal axes: (cart. coord. in units of alat)
               a(1) = (   0.834367  -0.481722   0.267909 )  
               a(2) = (   0.000000   0.963444   0.267909 )  
               a(3) = (  -0.834367  -0.481722   0.267909 )  

     reciprocal axes: (cart. coord. in units 2 pi/alat)
               b(1) = (  0.599257 -0.345981  1.244203 )  
               b(2) = (  0.000000  0.691962  1.244203 )  
               b(3) = ( -0.599257 -0.345981  1.244203 )  


     PseudoPot. # 1 for H  read from file:
     ./H.pbe-van_ak.UPF
     MD5 check sum: 077eb6d537518a38cb46c6de387227b7
     Pseudo is Ultrasoft, Zval =  1.0
     Generated by new atomic code, or converted to UPF format
     Using radial grid of  615 points,  1 beta functions with: 
                l(1) =   0
     Q(r) pseudized with  8 coefficients,  rinner =    0.800

     PseudoPot. # 2 for O  read from file:
     ./O.pbe-van_ak.UPF
     MD5 check sum: 78c19812648e8988a0fe644b0f25305e
     Pseudo is Ultrasoft, Zval =  6.0
     Generated by new atomic code, or converted to UPF format
     Using radial grid of  737 points,  4 beta functions with: 
                l(1) =   0
                l(2) =   0
                l(3) =   1
                l(4) =   1
     Q(r) pseudized with  8 coefficients,  rinner =    0.800   0.800   0.800


     atomic species   valence    mass     pseudopotential
     H                 1.00     1.00800     H ( 1.00)
     O                 6.00    16.00000     O ( 1.00)

      6 Sym. Ops., with inversion, found



   Cartesian axes

     site n.     atom                  positions (alat units)
         1        O      tau(   1) = (  -0.4847673  -0.5197781   0.3083633  )
         2        O      tau(   2) = (   0.4847673   0.5197782   0.4953638  )
         3        O      tau(   3) = (   0.6925247  -0.1599317   0.3083633  )
         4        O      tau(   4) = (  -0.6925248   0.1599317   0.4953638  )
         5        O      tau(   5) = (  -0.2077574   0.6797099   0.3083633  )
         6        O      tau(   6) = (   0.2077574  -0.6797099   0.4953638  )
         7        O      tau(   7) = (   0.1218176   0.3323883   0.4179381  )
         8        O      tau(   8) = (  -0.1218176  -0.3323883   0.3857890  )
         9        O      tau(   9) = (  -0.3487655  -0.0606970   0.4179381  )
        10        O      tau(  10) = (   0.3487655   0.0606970   0.3857890  )
        11        O      tau(  11) = (   0.2269479  -0.2716913   0.4179381  )
        12        O      tau(  12) = (  -0.2269479   0.2716912   0.3857890  )
        13        H      tau(  13) = (  -0.5381668  -0.4032014   0.2796970  )
        14        H      tau(  14) = (   0.5381668   0.4032014   0.5240301  )
        15        H      tau(  15) = (   0.6182661  -0.2644654   0.2796970  )
        16        H      tau(  16) = (  -0.6182661   0.2644654   0.5240301  )
        17        H      tau(  17) = (  -0.0800993   0.6676668   0.2796970  )
        18        H      tau(  18) = (   0.0800993  -0.6676668   0.5240301  )
        19        H      tau(  19) = (  -0.4872704  -0.4817221   0.4326731  )
        20        H      tau(  20) = (   0.4872704   0.4817221   0.3710540  )
        21        H      tau(  21) = (   0.6608188  -0.1811275   0.4326731  )
        22        H      tau(  22) = (  -0.6608188   0.1811275   0.3710540  )
        23        H      tau(  23) = (  -0.1735484   0.6628496   0.4326731  )
        24        H      tau(  24) = (   0.1735484  -0.6628496   0.3710540  )
        25        H      tau(  25) = (   0.2703349  -0.1502973   0.4058822  )
        26        H      tau(  26) = (  -0.2703350   0.1502973   0.3978449  )
        27        H      tau(  27) = (  -0.0050062   0.3092656   0.4058822  )
        28        H      tau(  28) = (   0.0050062  -0.3092656   0.3978449  )
        29        H      tau(  29) = (  -0.2653287  -0.1589683   0.4058822  )
        30        H      tau(  30) = (   0.2653287   0.1589683   0.3978449  )
        31        H      tau(  31) = (   0.3178939  -0.3347969   0.3493534  )
        32        H      tau(  32) = (  -0.3178939   0.3347969   0.4543737  )
        33        H      tau(  33) = (   0.1309957   0.4427026   0.3493534  )
        34        H      tau(  34) = (  -0.1309956  -0.4427026   0.4543737  )
        35        H      tau(  35) = (  -0.4488895  -0.1079057   0.3493534  )
        36        H      tau(  36) = (   0.4488895   0.1079057   0.4543737  )

     number of k points=    14
                       cart. coord. in units 2pi/alat
        k(    1) = (   0.0000000   0.0000000   0.0000000), wk =   0.0312500
        k(    2) = (  -0.1498141  -0.0864952   0.3110508), wk =   0.1875000
        k(    3) = (   0.2996283   0.1729905  -0.6221017), wk =   0.0937500
        k(    4) = (  -0.1498141   0.0864952   0.6221017), wk =   0.1875000
        k(    5) = (   0.2996283   0.3459809  -0.3110508), wk =   0.1875000
        k(    6) = (   0.1498141   0.2594857   0.0000000), wk =   0.1875000
        k(    7) = (   0.2996283  -0.1729905  -1.2442034), wk =   0.0937500
        k(    8) = (   0.0000000   0.0000000   0.9331525), wk =   0.0625000
        k(    9) = (   0.4494424   0.2594857   0.0000000), wk =   0.1875000
        k(   10) = (   0.2996283   0.1729905   0.3110508), wk =   0.1875000
        k(   11) = (   0.4494424  -0.2594857  -0.9331525), wk =   0.1875000
        k(   12) = (   0.2996283  -0.3459809  -0.6221017), wk =   0.1875000
        k(   13) = (   0.0000000   0.0000000  -1.8663050), wk =   0.0312500
        k(   14) = (   0.2996283  -0.3459809   0.3110508), wk =   0.1875000

     Dense  grid:   265585 G-vectors     FFT dimensions: (  96,  96,  96)

     Estimated max dynamical RAM per process >      17.24 MB

     Estimated total dynamical RAM >       1.96 GB

     Initial potential from superposition of free atoms

     starting charge      95.9998, renormalised to      96.0000
     Starting wfcs are   72 randomized atomic wfcs

     total cpu time spent up to now is        1.5 secs

     per-process dynamical memory:    20.9 Mb

     Self-consistent Calculation

     iteration #  1     ecut=    90.00 Ry     beta= 0.70
     Davidson diagonalization with overlap
     ethr =  1.00E-02,  avg # of iterations =  2.0

     total cpu time spent up to now is        2.4 secs

     total energy              =    -412.18856857 Ry
     estimated scf accuracy    <       3.61958873 Ry

     iteration #  2     ecut=    90.00 Ry     beta= 0.70
     Davidson diagonalization with overlap
     ethr =  3.77E-03,  avg # of iterations =  3.0

     total cpu time spent up to now is        3.6 secs

     total energy              =    -413.31566492 Ry
     estimated scf accuracy    <       2.70781573 Ry

     iteration #  3     ecut=    90.00 Ry     beta= 0.70
     Davidson diagonalization with overlap
     ethr =  2.82E-03,  avg # of iterations =  2.0

     total cpu time spent up to now is        4.4 secs

     total energy              =    -413.65189962 Ry
     estimated scf accuracy    <       0.12642895 Ry

     iteration #  4     ecut=    90.00 Ry     beta= 0.70
     Davidson diagonalization with overlap
     ethr =  1.32E-04,  avg # of iterations =  4.0

     negative rho (up, down):  4.472E-08 0.000E+00

     total cpu time spent up to now is        5.7 secs

     total energy              =    -413.75098962 Ry
     estimated scf accuracy    <       0.14195326 Ry

     iteration #  5     ecut=    90.00 Ry     beta= 0.70
     Davidson diagonalization with overlap
     ethr =  1.32E-04,  avg # of iterations =  1.6

     negative rho (up, down):  1.489E-07 0.000E+00

     total cpu time spent up to now is        6.4 secs

     total energy              =    -413.75354678 Ry
     estimated scf accuracy    <       0.02501968 Ry

     iteration #  6     ecut=    90.00 Ry     beta= 0.70
     Davidson diagonalization with overlap
     ethr =  2.61E-05,  avg # of iterations =  2.0

     negative rho (up, down):  2.544E-07 0.000E+00

     total cpu time spent up to now is        7.3 secs

     total energy              =    -413.75498639 Ry
     estimated scf accuracy    <       0.00496695 Ry

     iteration #  7     ecut=    90.00 Ry     beta= 0.70
     Davidson diagonalization with overlap
     ethr =  5.17E-06,  avg # of iterations =  3.1

     negative rho (up, down):  2.778E-07 0.000E+00

     total cpu time spent up to now is        8.3 secs

     total energy              =    -413.75627247 Ry
     estimated scf accuracy    <       0.00009137 Ry

     iteration #  8     ecut=    90.00 Ry     beta= 0.70
     Davidson diagonalization with overlap
     ethr =  9.52E-08,  avg # of iterations =  6.0

     negative rho (up, down):  2.586E-07 0.000E+00

     total cpu time spent up to now is        9.8 secs

     total energy              =    -413.75637553 Ry
     estimated scf accuracy    <       0.00054407 Ry

     iteration #  9     ecut=    90.00 Ry     beta= 0.70
     Davidson diagonalization with overlap
     ethr =  9.52E-08,  avg # of iterations =  2.0

     negative rho (up, down):  2.227E-07 0.000E+00

     total cpu time spent up to now is       10.6 secs

     total energy              =    -413.75626589 Ry
     estimated scf accuracy    <       0.00028628 Ry

     iteration # 10     ecut=    90.00 Ry     beta= 0.70
     Davidson diagonalization with overlap
     ethr =  9.52E-08,  avg # of iterations =  3.0

     negative rho (up, down):  2.164E-07 0.000E+00

     total cpu time spent up to now is       11.6 secs

     total energy              =    -413.75630652 Ry
     estimated scf accuracy    <       0.00001035 Ry

     iteration # 11     ecut=    90.00 Ry     beta= 0.70
     Davidson diagonalization with overlap
     ethr =  1.08E-08,  avg # of iterations =  3.0

     negative rho (up, down):  2.165E-07 0.000E+00

     total cpu time spent up to now is       12.6 secs

     total energy              =    -413.75631020 Ry
     estimated scf accuracy    <       0.00000042 Ry

     iteration # 12     ecut=    90.00 Ry     beta= 0.70
     Davidson diagonalization with overlap
     ethr =  4.37E-10,  avg # of iterations =  4.6

     negative rho (up, down):  2.196E-07 0.000E+00

     total cpu time spent up to now is       13.8 secs

     End of self-consistent calculation

          k = 0.0000 0.0000 0.0000 ( 33199 PWs)   bands (ev):

   -20.8630 -20.4971 -20.4971 -20.3137 -20.3137 -20.2884 -20.2884 -20.2815
   -20.2753 -20.0329 -20.0329 -19.7789  -8.3252  -8.1479  -8.0887  -8.0887
    -8.0370  -8.0370  -7.6185  -7.4795  -7.4795  -7.2772  -7.2772  -7.1679
    -7.1035  -6.3376  -6.3376  -5.8195  -5.8195  -5.7308  -5.7308  -5.4734
    -5.3128  -4.7127  -4.7127  -4.0936  -3.2532  -3.2532  -3.1665  -3.0936
    -3.0550  -3.0550  -2.9258  -2.9258  -2.9240  -2.9060  -2.8652  -2.8652

          k =-0.1498-0.0865 0.3111 ( 33198 PWs)   bands (ev):

   -20.8032 -20.5307 -20.4881 -20.4304 -20.4088 -20.3499 -20.2340 -20.1984
   -20.1550 -20.0376 -20.0039 -19.8275  -8.2775  -8.2070  -8.1362  -8.0973
    -8.0172  -7.9609  -7.6085  -7.4467  -7.4408  -7.3093  -7.2039  -7.1691
    -6.9975  -6.4665  -6.3563  -6.1082  -5.8142  -5.7095  -5.5699  -5.3733
    -5.3193  -4.7056  -4.6478  -4.2193  -3.3474  -3.2862  -3.1852  -3.1330
    -3.0864  -3.0594  -3.0217  -2.9623  -2.9121  -2.8729  -2.8493  -2.8074

          k = 0.2996 0.1730-0.6221 ( 33174 PWs)   bands (ev):

   -20.6518 -20.6454 -20.5103 -20.5078 -20.4086 -20.4074 -20.1852 -20.1832
   -20.0431 -20.0395 -19.9491 -19.9405  -8.2594  -8.2062  -8.1281  -8.1124
    -8.0161  -7.9652  -7.5587  -7.4503  -7.4171  -7.3177  -7.1352  -7.1333
    -6.7933  -6.6654  -6.4071  -6.2498  -5.8217  -5.7458  -5.5723  -5.4272
    -4.9527  -4.8190  -4.5914  -4.3765  -3.4328  -3.3009  -3.2075  -3.1781
    -3.1184  -3.1044  -3.0249  -2.9775  -2.9534  -2.8421  -2.8340  -2.7672

          k =-0.1498 0.0865 0.6221 ( 33168 PWs)   bands (ev):

   -20.6827 -20.5728 -20.5672 -20.4714 -20.4512 -20.3973 -20.1928 -20.1270
   -20.0995 -20.0042 -19.9886 -19.9171  -8.2660  -8.1852  -8.1691  -8.0702
    -8.0353  -7.9545  -7.5651  -7.4782  -7.4357  -7.2338  -7.1759  -7.1297
    -6.7972  -6.6077  -6.5248  -6.1049  -5.9519  -5.7862  -5.5018  -5.3165
    -5.1251  -4.6738  -4.6526  -4.3841  -3.4146  -3.3362  -3.1969  -3.1571
    -3.1287  -3.0840  -3.0494  -2.9740  -2.9472  -2.8510  -2.8358  -2.7623

          k = 0.2996 0.3460-0.3111 ( 33194 PWs)   bands (ev):

   -20.7245 -20.5988 -20.5193 -20.4889 -20.4312 -20.3709 -20.1982 -20.1151
   -20.1026 -20.0376 -19.9839 -19.8959  -8.2702  -8.2495  -8.1124  -8.0930
    -8.0407  -7.9565  -7.5852  -7.5320  -7.4232  -7.2061  -7.1764  -7.1205
    -6.9082  -6.6466  -6.4325  -6.1163  -6.0883  -5.6486  -5.4744  -5.2348
    -5.0292  -4.8146  -4.6300  -4.3639  -3.3444  -3.2822  -3.2107  -3.1472
    -3.1030  -3.0604  -3.0047  -2.9993  -2.9296  -2.8904  -2.8398  -2.7533

          k = 0.1498 0.2595 0.0000 ( 33228 PWs)   bands (ev):

   -20.8195 -20.5542 -20.5105 -20.4062 -20.3822 -20.3156 -20.2510 -20.1922
   -20.1590 -20.0412 -20.0134 -19.8175  -8.3118  -8.2160  -8.1303  -8.0948
    -7.9912  -7.9850  -7.6468  -7.5286  -7.3662  -7.2817  -7.2305  -7.1405
    -7.1044  -6.4598  -6.3435  -6.0959  -5.9913  -5.5942  -5.4795  -5.3540
    -5.1935  -4.7765  -4.6874  -4.1859  -3.2529  -3.2385  -3.1964  -3.1168
    -3.0836  -3.0618  -2.9665  -2.9488  -2.9242  -2.9141  -2.8277  -2.8161

          k = 0.2996-0.1730-1.2442 ( 33200 PWs)   bands (ev):

   -20.7142 -20.6865 -20.5204 -20.4491 -20.3803 -20.3384 -20.2042 -20.1802
   -20.0837 -20.0699 -19.9238 -19.9115  -8.2926  -8.2607  -8.1451  -8.1120
    -7.9646  -7.9625  -7.6356  -7.5812  -7.3439  -7.3056  -7.1486  -7.1116
    -6.8638  -6.8182  -6.4048  -6.1920  -5.9070  -5.7093  -5.3750  -5.1298
    -5.0358  -4.9458  -4.5529  -4.3799  -3.2627  -3.2243  -3.2151  -3.1443
    -3.0839  -3.0419  -3.0174  -2.9586  -2.9481  -2.9137  -2.7994  -2.7844

          k = 0.0000 0.0000 0.9332 ( 33189 PWs)   bands (ev):

   -20.6373 -20.6373 -20.5744 -20.5402 -20.3987 -20.3987 -20.1363 -20.1363
   -20.0297 -20.0131 -19.9826 -19.9826  -8.2506  -8.2506  -8.1309  -8.0409
    -8.0409  -8.0191  -7.5917  -7.5042  -7.5042  -7.1259  -7.1259  -7.0942
    -6.7369  -6.7286  -6.7286  -6.1399  -5.8770  -5.8770  -5.2875  -5.1105
    -5.1105  -4.6893  -4.6893  -4.5232  -3.2958  -3.2958  -3.1888  -3.1448
    -3.0777  -3.0777  -3.0334  -2.9747  -2.9747  -2.8781  -2.8781  -2.7330

          k = 0.4494 0.2595 0.0000 ( 33227 PWs)   bands (ev):

   -20.7390 -20.6041 -20.6016 -20.4507 -20.3368 -20.3314 -20.2191 -20.2122
   -20.0845 -20.0112 -19.9846 -19.8872  -8.2890  -8.2497  -8.1933  -8.0565
    -8.0042  -7.9445  -7.6518  -7.5389  -7.4237  -7.2151  -7.1729  -7.1287
    -6.9505  -6.6178  -6.5478  -6.1467  -5.9311  -5.7007  -5.2935  -5.2569
    -5.0755  -4.7835  -4.6514  -4.3554  -3.2493  -3.2422  -3.2065  -3.1481
    -3.0996  -3.0515  -2.9895  -2.9704  -2.9302  -2.8940  -2.8430  -2.7689

          k = 0.2996 0.1730 0.3111 ( 33225 PWs)   bands (ev):

   -20.7627 -20.5658 -20.4970 -20.4793 -20.4089 -20.3628 -20.2093 -20.1821
   -20.1284 -20.0267 -19.9857 -19.8584  -8.2885  -8.2358  -8.1602  -8.0522
    -8.0445  -7.9183  -7.6160  -7.5079  -7.3471  -7.2828  -7.2451  -7.1619
    -6.9316  -6.4773  -6.3235  -6.2385  -6.0217  -5.7293  -5.4640  -5.2869
    -5.1273  -4.7744  -4.6341  -4.2625  -3.3607  -3.2903  -3.2278  -3.1780
    -3.0983  -3.0630  -2.9992  -2.9732  -2.9033  -2.8656  -2.8166  -2.7984

          k = 0.4494-0.2595-0.9332 ( 33227 PWs)   bands (ev):

   -20.6590 -20.6562 -20.5448 -20.5086 -20.3999 -20.3368 -20.2412 -20.1719
   -20.0581 -20.0118 -19.9722 -19.9062  -8.3146  -8.2260  -8.1893  -8.0569
    -8.0154  -7.8996  -7.6514  -7.4650  -7.3624  -7.3125  -7.1905  -7.1679
    -6.7112  -6.6725  -6.3908  -6.2452  -6.0777  -5.8068  -5.4278  -5.1727
    -4.8795  -4.8698  -4.6782  -4.3213  -3.3642  -3.3050  -3.2740  -3.1772
    -3.1473  -3.0754  -2.9582  -2.9382  -2.9159  -2.8778  -2.8179  -2.7683

          k = 0.2996-0.3460-0.6221 ( 33196 PWs)   bands (ev):

   -20.6242 -20.6190 -20.5363 -20.5331 -20.4240 -20.4227 -20.1728 -20.1704
   -20.0466 -20.0422 -19.9429 -19.9371  -8.3278  -8.1503  -8.1223  -8.1063
    -8.0750  -7.9046  -7.5882  -7.4711  -7.3488  -7.3041  -7.1748  -7.1698
    -6.6779  -6.5583  -6.4201  -6.2961  -6.0134  -5.9778  -5.3567  -5.2884
    -4.8905  -4.8465  -4.6997  -4.3068  -3.4606  -3.3170  -3.2731  -3.2106
    -3.1671  -3.0517  -2.9949  -2.9610  -2.9448  -2.8365  -2.8221  -2.7533

          k = 0.0000 0.0000-1.8663 ( 33264 PWs)   bands (ev):

   -20.5962 -20.5954 -20.5101 -20.5101 -20.4972 -20.4972 -20.1093 -20.1093
   -20.0939 -20.0939 -19.9304 -19.9281  -8.3694  -8.1213  -8.1213  -8.0967
    -8.0967  -7.8754  -7.6318  -7.4644  -7.2658  -7.2658  -7.2343  -7.2343
    -6.5328  -6.3427  -6.3230  -6.3230  -6.2883  -6.2883  -5.1638  -5.1638
    -4.9150  -4.9150  -4.7331  -4.2601  -3.4883  -3.3172  -3.3172  -3.2400
    -3.2400  -3.0066  -2.9878  -2.9114  -2.9114  -2.8474  -2.8474  -2.7319

          k = 0.2996-0.3460 0.3111 ( 33194 PWs)   bands (ev):

   -20.7243 -20.6001 -20.5159 -20.4923 -20.4291 -20.3715 -20.1980 -20.1217
   -20.0960 -20.0402 -19.9809 -19.8970  -8.2845  -8.2192  -8.1457  -8.0923
    -8.0107  -7.9655  -7.6245  -7.5061  -7.4002  -7.2383  -7.1467  -7.1384
    -6.9041  -6.5867  -6.5126  -6.1720  -5.9464  -5.7032  -5.5490  -5.1582
    -5.0145  -4.7988  -4.6879  -4.3474  -3.3504  -3.2585  -3.2263  -3.1438
    -3.1051  -3.0659  -3.0032  -3.0011  -2.9453  -2.8645  -2.8405  -2.7603

     highest occupied level (ev):    -2.7319

!    total energy              =    -413.75631048 Ry
     estimated scf accuracy    <       0.00000010 Ry

     The total energy is the sum of the following terms:
     one-electron contribution =    -304.45917302 Ry
     hartree contribution      =     184.96422177 Ry
     xc contribution           =    -100.28196350 Ry
     ewald contribution        =    -193.97939573 Ry

     convergence has been achieved in  12 iterations

     Forces acting on atoms (cartesian axes, Ry/au):

     atom    1 type  2   force =    -0.05303808    0.11426587    0.06514520
     atom    2 type  2   force =     0.05303808   -0.11426587   -0.06514520
     atom    3 type  2   force =    -0.07243811   -0.10306526    0.06514520
     atom    4 type  2   force =     0.07243811    0.10306526   -0.06514520
     atom    5 type  2   force =     0.12547619   -0.01120061    0.06514520
     atom    6 type  2   force =    -0.12547619    0.01120061   -0.06514520
     atom    7 type  2   force =    -0.07215195    0.05172240   -0.04756773
     atom    8 type  2   force =     0.07215195   -0.05172240    0.04756773
     atom    9 type  2   force =    -0.00871694   -0.08834662   -0.04756773
     atom   10 type  2   force =     0.00871694    0.08834662    0.04756773
     atom   11 type  2   force =     0.08086889    0.03662422   -0.04756773
     atom   12 type  2   force =    -0.08086889   -0.03662422    0.04756773
     atom   13 type  1   force =     0.02269393   -0.06695826   -0.03355180
     atom   14 type  1   force =    -0.02269393    0.06695826    0.03355180
     atom   15 type  1   force =     0.04664058    0.05313265   -0.03355180
     atom   16 type  1   force =    -0.04664058   -0.05313265    0.03355180
     atom   17 type  1   force =    -0.06933452    0.01382561   -0.03355180
     atom   18 type  1   force =     0.06933452   -0.01382561    0.03355180
     atom   19 type  1   force =     0.02701630   -0.05349865   -0.04076129
     atom   20 type  1   force =    -0.02701630    0.05349865    0.04076129
     atom   21 type  1   force =     0.03282304    0.05014613   -0.04076129
     atom   22 type  1   force =    -0.03282304   -0.05014613    0.04076129
     atom   23 type  1   force =    -0.05983934    0.00335252   -0.04076129
     atom   24 type  1   force =     0.05983934   -0.00335252    0.04076129
     atom   25 type  1   force =    -0.02769604   -0.05210431    0.01491039
     atom   26 type  1   force =     0.02769604    0.05210431   -0.01491039
     atom   27 type  1   force =     0.05897168    0.00206668    0.01491039
     atom   28 type  1   force =    -0.05897168   -0.00206668   -0.01491039
     atom   29 type  1   force =    -0.03127564    0.05003763    0.01491039
     atom   30 type  1   force =     0.03127564   -0.05003763   -0.01491039
     atom   31 type  1   force =    -0.06130442    0.01932122    0.04180143
     atom   32 type  1   force =     0.06130442   -0.01932122   -0.04180143
     atom   33 type  1   force =     0.01391954   -0.06275180    0.04180143
     atom   34 type  1   force =    -0.01391954    0.06275180   -0.04180143
     atom   35 type  1   force =     0.04738488    0.04343058    0.04180143
     atom   36 type  1   force =    -0.04738488   -0.04343058   -0.04180143

     Total force =     0.554355     Total SCF correction =     0.000445


     Computing stress (Cartesian axis) and pressure

          total   stress  (Ry/bohr**3)                   (kbar)     P=      -90.59
  -0.00069529  -0.00000000   0.00000000         -102.28       -0.00        0.00
   0.00000000  -0.00069529  -0.00000000            0.00     -102.28       -0.00
   0.00000000  -0.00000000  -0.00045692            0.00       -0.00      -67.22


     BFGS Geometry Optimization
     Energy error            =      0.0E+00 Ry
     Gradient error          =      1.3E-01 Ry/Bohr

     number of scf cycles    =   1
     number of bfgs steps    =   0

     energy             new  =    -413.7563104796 Ry

     new trust radius        =       0.1418225142 bohr
     new conv_thr            =       0.0000001000 Ry


ATOMIC_POSITIONS (crystal)
O                0.2736374069        0.0344822785        0.8587987497
O                0.7263625931        0.9655177325        0.1412012203
O                0.8587987497        0.2736374069        0.0344822785
O                0.1412012203        0.7263625931        0.9655177325
O                0.0344822785        0.8587987497        0.2736374069
O                0.9655177325        0.1412012203        0.7263625931
O                0.4701235273        0.7484685227        0.3297845777
O                0.5298764727        0.2515314773        0.6702153923
O                0.3297845777        0.4701235273        0.7484685227
O                0.6702153923        0.5298764727        0.2515314773
O                0.7484685227        0.3297845777        0.4701235273
O                0.2515314773        0.6702153923        0.5298764727
H                0.1646740269        0.0632340253        0.8078934539
H                0.8353259591        0.9367659667        0.1921065461
H                0.8078934539        0.1646740269        0.0632340253
H                0.1921065461        0.8353259591        0.9367659667
H                0.0632340253        0.8078934539        0.1646740269
H                0.9367659667        0.1921065461        0.8353259591
H                0.4119514997        0.1992565096        0.9938317892
H                0.5880485003        0.8007435054        0.0061681898
H                0.9938317892        0.4119514997        0.1992565096
H                0.0061681898        0.5880485003        0.8007435054
H                0.1992565096        0.9938317892        0.4119514997
H                0.8007435054        0.0061681898        0.5880485003
H                0.7203080692        0.3998541910        0.3984811321
H                0.2796919308        0.6001457790        0.6015188979
H                0.3984811321        0.7203080692        0.3998541910
H                0.6015188979        0.2796919308        0.6001457790
H                0.3998541910        0.3984811321        0.7203080692
H                0.6001457790        0.6015188979        0.2796919308
H                0.7415621819        0.2072800008        0.3653721495
H                0.2584378181        0.7927199842        0.6346278505
H                0.3653721495        0.7415621819        0.2072800008
H                0.6346278505        0.2584378181        0.7927199842
H                0.2072800008        0.3653721495        0.7415621819
H                0.7927199842        0.6346278505        0.2584378181



     Writing config-only to output data dir ./iceII/iceII.save/ :
     XML data file
     NEW-OLD atomic charge density approx. for the potential

     negative rho (up, down):  2.322E-07 0.000E+00

     total cpu time spent up to now is       15.2 secs

     per-process dynamical memory:    27.3 Mb

     Self-consistent Calculation

     iteration #  1     ecut=    90.00 Ry     beta= 0.70
     Davidson diagonalization with overlap
     ethr =  1.00E-06,  avg # of iterations = 10.0

     negative rho (up, down):  3.918E-07 0.000E+00

     total cpu time spent up to now is       17.7 secs

     total energy              =    -413.86858634 Ry
     estimated scf accuracy    <       0.10614755 Ry

     iteration #  2     ecut=    90.00 Ry     beta= 0.70
     Davidson diagonalization with overlap
     ethr =  1.11E-04,  avg # of iterations =  3.0

     negative rho (up, down):  3.404E-07 0.000E+00

     total cpu time spent up to now is       18.8 secs

     total energy              =    -413.89816935 Ry
     estimated scf accuracy    <       0.04299434 Ry

     iteration #  3     ecut=    90.00 Ry     beta= 0.70
     Davidson diagonalization with overlap
     ethr =  4.48E-05,  avg # of iterations =  2.0

     negative rho (up, down):  4.012E-07 0.000E+00

     total cpu time spent up to now is       19.6 secs

     total energy              =    -413.90453996 Ry
     estimated scf accuracy    <       0.00123443 Ry

     iteration #  4     ecut=    90.00 Ry     beta= 0.70
     Davidson diagonalization with overlap
     ethr =  1.29E-06,  avg # of iterations =  5.0

     negative rho (up, down):  5.425E-07 0.000E+00

     total cpu time spent up to now is       20.8 secs

     total energy              =    -413.90539433 Ry
     estimated scf accuracy    <       0.00169465 Ry

     iteration #  5     ecut=    90.00 Ry     beta= 0.70
     Davidson diagonalization with overlap
     ethr =  1.29E-06,  avg # of iterations =  2.1

     negative rho (up, down):  6.420E-07 0.000E+00

     total cpu time spent up to now is       21.7 secs

     total energy              =    -413.90550336 Ry
     estimated scf accuracy    <       0.00016842 Ry

     iteration #  6     ecut=    90.00 Ry     beta= 0.70
     Davidson diagonalization with overlap
     ethr =  1.75E-07,  avg # of iterations =  4.0

     negative rho (up, down):  6.115E-07 0.000E+00

     total cpu time spent up to now is       22.9 secs

     total energy              =    -413.90558225 Ry
     estimated scf accuracy    <       0.00015820 Ry

     iteration #  7     ecut=    90.00 Ry     beta= 0.70
     Davidson diagonalization with overlap
     ethr =  1.65E-07,  avg # of iterations =  2.0

     negative rho (up, down):  5.966E-07 0.000E+00

     total cpu time spent up to now is       23.7 secs

     total energy              =    -413.90560759 Ry
     estimated scf accuracy    <       0.00000401 Ry

     iteration #  8     ecut=    90.00 Ry     beta= 0.70
     Davidson diagonalization with overlap
     ethr =  4.18E-09,  avg # of iterations =  5.0

     negative rho (up, down):  5.963E-07 0.000E+00

     total cpu time spent up to now is       25.1 secs

     total energy              =    -413.90561081 Ry
     estimated scf accuracy    <       0.00000063 Ry

     iteration #  9     ecut=    90.00 Ry     beta= 0.70
     Davidson diagonalization with overlap
     ethr =  6.56E-10,  avg # of iterations =  2.0

     negative rho (up, down):  5.966E-07 0.000E+00

     total cpu time spent up to now is       25.9 secs

     total energy              =    -413.90561072 Ry
     estimated scf accuracy    <       0.00000036 Ry

     iteration # 10     ecut=    90.00 Ry     beta= 0.70
     Davidson diagonalization with overlap
     ethr =  3.76E-10,  avg # of iterations =  2.0

     negative rho (up, down):  5.971E-07 0.000E+00

     total cpu time spent up to now is       26.7 secs

     End of self-consistent calculation

          k = 0.0000 0.0000 0.0000 ( 33199 PWs)   bands (ev):

   -21.4699 -21.1638 -21.1638 -20.9759 -20.9759 -20.9639 -20.9639 -20.9537
   -20.9522 -20.7306 -20.7306 -20.5270  -9.0359  -8.8819  -8.8364  -8.8364
    -8.8083  -8.8083  -8.3621  -8.3621  -8.2721  -8.2670  -8.2670  -8.1526
    -7.1114  -6.2185  -6.2185  -5.6702  -5.6702  -5.6393  -5.6393  -5.3958
    -5.3534  -4.7451  -4.7451  -4.1735  -3.3981  -3.3981  -3.3763  -3.2100
    -3.2100  -3.1851  -3.0731  -3.0428  -3.0428  -3.0365  -2.9725  -2.9725

          k =-0.1498-0.0865 0.3111 ( 33198 PWs)   bands (ev):

   -21.4176 -21.1865 -21.1612 -21.0752 -21.0626 -21.0245 -20.9106 -20.8759
   -20.8473 -20.7380 -20.7101 -20.5654  -9.0037  -8.9010  -8.8628  -8.8576
    -8.7994  -8.7575  -8.3687  -8.3465  -8.2837  -8.2352  -8.2234  -8.1891
    -6.9600  -6.3426  -6.2530  -5.9640  -5.7620  -5.5738  -5.4901  -5.3051
    -5.2443  -4.7441  -4.6792  -4.2798  -3.4791  -3.4236  -3.3709  -3.2412
    -3.2347  -3.2082  -3.1582  -3.0816  -3.0285  -2.9898  -2.9678  -2.9268

          k = 0.2996 0.1730-0.6221 ( 33174 PWs)   bands (ev):

   -21.3022 -21.2613 -21.1867 -21.1272 -21.0888 -21.0629 -20.8794 -20.8442
   -20.7680 -20.7326 -20.6860 -20.6389  -8.9499  -8.9328  -8.8870  -8.8512
    -8.7962  -8.7453  -8.3557  -8.3296  -8.2745  -8.2626  -8.1934  -8.1839
    -6.6763  -6.5472  -6.3070  -6.1506  -5.7702  -5.6779  -5.4207  -5.2667
    -4.9414  -4.8125  -4.6261  -4.4291  -3.5501  -3.4355  -3.3594  -3.3021
    -3.2657  -3.2492  -3.1464  -3.0965  -3.0932  -2.9556  -2.9500  -2.8881

          k =-0.1498 0.0865 0.6221 ( 33168 PWs)   bands (ev):

   -21.3158 -21.2182 -21.2113 -21.1265 -21.1003 -21.0650 -20.8710 -20.8250
   -20.7912 -20.7181 -20.7045 -20.6316  -8.9530  -8.9210  -8.9069  -8.8287
    -8.8083  -8.7439  -8.3513  -8.3350  -8.2958  -8.2270  -8.2043  -8.1869
    -6.7046  -6.4494  -6.4219  -6.0318  -5.8608  -5.7200  -5.3601  -5.2025
    -5.0569  -4.7077  -4.6809  -4.4317  -3.5341  -3.4655  -3.3470  -3.3041
    -3.2732  -3.2051  -3.1841  -3.1036  -3.0726  -2.9641  -2.9522  -2.8834

          k = 0.2996 0.3460-0.3111 ( 33194 PWs)   bands (ev):

   -21.3502 -21.2519 -21.1754 -21.1284 -21.0751 -21.0396 -20.8766 -20.8370
   -20.7956 -20.7338 -20.6961 -20.6149  -8.9738  -8.9444  -8.8735  -8.8407
    -8.8005  -8.7366  -8.4068  -8.3839  -8.3164  -8.2120  -8.1854  -8.1701
    -6.7356  -6.4820  -6.2711  -6.0662  -6.0072  -5.6081  -5.3021  -5.2117
    -5.0196  -4.8090  -4.6555  -4.4025  -3.4802  -3.4236  -3.3670  -3.3095
    -3.2266  -3.1852  -3.1456  -3.1227  -3.0557  -3.0028  -2.9561  -2.8712

          k = 0.1498 0.2595 0.0000 ( 33228 PWs)   bands (ev):

   -21.4324 -21.2131 -21.1752 -21.0564 -21.0303 -20.9709 -20.9433 -20.8838
   -20.8624 -20.7372 -20.7095 -20.5566  -9.0183  -8.9126  -8.8630  -8.8566
    -8.7764  -8.7633  -8.4255  -8.3899  -8.2787  -8.2567  -8.2163  -8.1537
    -6.9712  -6.3048  -6.2106  -5.9951  -5.8851  -5.5410  -5.4079  -5.2610
    -5.2099  -4.7888  -4.7167  -4.2478  -3.4002  -3.3887  -3.3829  -3.2671
    -3.2125  -3.1862  -3.0904  -3.0757  -3.0639  -3.0267  -2.9407  -2.9302

          k = 0.2996-0.1730-1.2442 ( 33200 PWs)   bands (ev):

   -21.3384 -21.3252 -21.1852 -21.0894 -21.0393 -20.9805 -20.9187 -20.8660
   -20.8108 -20.7490 -20.6477 -20.6206  -8.9829  -8.9587  -8.8726  -8.8628
    -8.7567  -8.7386  -8.4659  -8.4148  -8.2885  -8.2510  -8.1749  -8.1628
    -6.6438  -6.6150  -6.2282  -6.1551  -5.8321  -5.6591  -5.3127  -5.1491
    -5.0044  -4.9202  -4.5799  -4.4078  -3.4117  -3.3803  -3.3788  -3.3089
    -3.2194  -3.1585  -3.1369  -3.1008  -3.0620  -3.0279  -2.9152  -2.9033

          k = 0.0000 0.0000 0.9332 ( 33189 PWs)   bands (ev):

   -21.2733 -21.2733 -21.2530 -21.1450 -21.0582 -21.0582 -20.8319 -20.8319
   -20.7850 -20.6942 -20.6942 -20.6764  -8.9510  -8.9510  -8.9079  -8.7952
    -8.7952  -8.7743  -8.4232  -8.3636  -8.3636  -8.1767  -8.1767  -8.1595
    -6.5264  -6.5264  -6.5167  -6.0911  -5.8371  -5.8371  -5.1256  -5.0897
    -5.0897  -4.6981  -4.6981  -4.5550  -3.4387  -3.4387  -3.3532  -3.3149
    -3.2053  -3.2053  -3.1676  -3.0989  -3.0989  -2.9848  -2.9848  -2.8495

          k = 0.4494 0.2595 0.0000 ( 33227 PWs)   bands (ev):

   -21.3634 -21.2556 -21.2472 -21.0782 -21.0201 -20.9873 -20.9110 -20.8881
   -20.8149 -20.7125 -20.6843 -20.6082  -8.9874  -8.9403  -8.9110  -8.8240
    -8.7835  -8.7265  -8.4751  -8.3872  -8.3301  -8.2094  -8.1920  -8.1634
    -6.7345  -6.4273  -6.3635  -6.1155  -5.8478  -5.6331  -5.2773  -5.2381
    -5.0372  -4.7742  -4.6704  -4.3889  -3.4016  -3.3912  -3.3741  -3.3124
    -3.2294  -3.1715  -3.1253  -3.0951  -3.0512  -3.0091  -2.9552  -2.8876

          k = 0.2996 0.1730 0.3111 ( 33225 PWs)   bands (ev):

   -21.3833 -21.2220 -21.1603 -21.1202 -21.0587 -21.0287 -20.8950 -20.8814
   -20.8004 -20.7475 -20.6899 -20.5873  -8.9898  -8.9218  -8.8825  -8.8441
    -8.8065  -8.7196  -8.4209  -8.3329  -8.2798  -8.2632  -8.1999  -8.1892
    -6.8355  -6.3650  -6.2376  -6.0991  -5.9029  -5.6049  -5.4115  -5.2497
    -5.0835  -4.7889  -4.6607  -4.3129  -3.4957  -3.4266  -3.3845  -3.2954
    -3.2459  -3.1942  -3.1402  -3.0947  -3.0239  -2.9957  -2.9333  -2.9193

          k = 0.4494-0.2595-0.9332 ( 33227 PWs)   bands (ev):

   -21.3031 -21.2887 -21.2009 -21.1342 -21.0588 -21.0153 -20.9114 -20.8697
   -20.7472 -20.7433 -20.6851 -20.6167  -8.9637  -8.9459  -8.9049  -8.8371
    -8.7995  -8.6943  -8.4525  -8.3443  -8.2813  -8.2674  -8.1935  -8.1854
    -6.6054  -6.4869  -6.2512  -6.2193  -5.9519  -5.6472  -5.4097  -5.1787
    -4.8627  -4.8502  -4.6882  -4.3591  -3.5033  -3.4380  -3.4066  -3.3056
    -3.2654  -3.2283  -3.0986  -3.0656  -3.0439  -2.9994  -2.9387  -2.8912

          k = 0.2996-0.3460-0.6221 ( 33196 PWs)   bands (ev):

   -21.2862 -21.2339 -21.1972 -21.1629 -21.0897 -21.0777 -20.8696 -20.8503
   -20.7493 -20.7346 -20.6974 -20.6292  -8.9671  -8.9061  -8.8857  -8.8509
    -8.8333  -8.7003  -8.3721  -8.3429  -8.2629  -8.2553  -8.2069  -8.2019
    -6.5897  -6.4579  -6.3018  -6.2353  -5.8654  -5.8235  -5.2902  -5.2207
    -4.8770  -4.8334  -4.7123  -4.3625  -3.5750  -3.4457  -3.4090  -3.3265
    -3.3009  -3.1700  -3.1475  -3.0966  -3.0766  -2.9586  -2.9472  -2.8741

          k = 0.0000 0.0000-1.8663 ( 33264 PWs)   bands (ev):

   -21.2737 -21.1852 -21.1837 -21.1837 -21.1269 -21.1269 -20.8366 -20.8366
   -20.7557 -20.7557 -20.6933 -20.6199  -8.9761  -8.8854  -8.8854  -8.8527
    -8.8527  -8.6716  -8.3875  -8.3542  -8.2430  -8.2430  -8.2282  -8.2282
    -6.5222  -6.3870  -6.1663  -6.1663  -6.0808  -6.0808  -5.1393  -5.1393
    -4.8969  -4.8969  -4.7206  -4.3167  -3.5993  -3.4412  -3.4412  -3.3499
    -3.3499  -3.1657  -3.1182  -3.0443  -3.0443  -2.9780  -2.9780  -2.8552

          k = 0.2996-0.3460 0.3111 ( 33194 PWs)   bands (ev):

   -21.3510 -21.2447 -21.1893 -21.1245 -21.0688 -21.0396 -20.8839 -20.8382
   -20.7765 -20.7554 -20.6856 -20.6170  -8.9800  -8.9270  -8.8830  -8.8561
    -8.7774  -8.7457  -8.4183  -8.3746  -8.3128  -8.2102  -8.1896  -8.1696
    -6.7424  -6.4138  -6.3667  -6.0950  -5.8866  -5.6566  -5.4068  -5.1081
    -4.9897  -4.8218  -4.6923  -4.3907  -3.4833  -3.4132  -3.3777  -3.2990
    -3.2227  -3.1939  -3.1399  -3.1351  -3.0677  -2.9769  -2.9594  -2.8772

     highest occupied level (ev):    -2.8495

!    total energy              =    -413.90561074 Ry
     estimated scf accuracy    <       0.00000003 Ry

     The total energy is the sum of the following terms:
     one-electron contribution =    -316.74834058 Ry
     hartree contribution      =     190.58009064 Ry
     xc contribution           =    -101.61771092 Ry
     ewald contribution        =    -186.11964988 Ry

     convergence has been achieved in  10 iterations

     Forces acting on atoms (cartesian axes, Ry/au):

     atom    1 type  2   force =    -0.00099215   -0.01288999   -0.00722584
     atom    2 type  2   force =     0.00099215    0.01288999    0.00722584
     atom    3 type  2   force =     0.01165914    0.00558577   -0.00722584
     atom    4 type  2   force =    -0.01165914   -0.00558577    0.00722584
     atom    5 type  2   force =    -0.01066699    0.00730423   -0.00722584
     atom    6 type  2   force =     0.01066699   -0.00730423    0.00722584
     atom    7 type  2   force =     0.01003312   -0.01343623    0.00752082
     atom    8 type  2   force =    -0.01003312    0.01343623   -0.00752082
     atom    9 type  2   force =     0.00661956    0.01540705    0.00752082
     atom   10 type  2   force =    -0.00661956   -0.01540705   -0.00752082
     atom   11 type  2   force =    -0.01665268   -0.00197082    0.00752082
     atom   12 type  2   force =     0.01665268    0.00197082   -0.00752082
     atom   13 type  1   force =    -0.01743502    0.02328275   -0.04017307
     atom   14 type  1   force =     0.01743502   -0.02328275    0.04017307
     atom   15 type  1   force =    -0.01144595   -0.02674055   -0.04017307
     atom   16 type  1   force =     0.01144595    0.02674055    0.04017307
     atom   17 type  1   force =     0.02888097    0.00345779   -0.04017307
     atom   18 type  1   force =    -0.02888097   -0.00345779    0.04017307
     atom   19 type  1   force =     0.01855508   -0.01432547    0.04183168
     atom   20 type  1   force =    -0.01855508    0.01432547   -0.04183168
     atom   21 type  1   force =     0.00312868    0.02323191    0.04183168
     atom   22 type  1   force =    -0.00312868   -0.02323191   -0.04183168
     atom   23 type  1   force =    -0.02168377   -0.00890644    0.04183168
     atom   24 type  1   force =     0.02168377    0.00890644   -0.04183168
     atom   25 type  1   force =     0.00734675    0.01729355    0.00189492
     atom   26 type  1   force =    -0.00734675   -0.01729355   -0.00189492
     atom   27 type  1   force =    -0.01865003   -0.00228430    0.00189492
     atom   28 type  1   force =     0.01865003    0.00228430   -0.00189492
     atom   29 type  1   force =     0.01130328   -0.01500925    0.00189492
     atom   30 type  1   force =    -0.01130328    0.01500925   -0.00189492
     atom   31 type  1   force =     0.00465730   -0.01218273   -0.00541346
     atom   32 type  1   force =    -0.00465730    0.01218273    0.00541346
     atom   33 type  1   force =     0.00822191    0.01012470   -0.00541346
     atom   34 type  1   force =    -0.00822191   -0.01012470    0.00541346
     atom   35 type  1   force =    -0.01287920    0.00205803   -0.00541346
     atom   36 type  1   force =     0.01287920   -0.00205803    0.00541346

     Total force =     0.187710     Total SCF correction =     0.000096


     Computing stress (Cartesian axis) and pressure

          total   stress  (Ry/bohr**3)                   (kbar)     P=       10.46
   0.00001475  -0.00000000   0.00000000            2.17       -0.00        0.00
   0.00000000   0.00001475   0.00000000            0.00        2.17        0.00
  -0.00000000   0.00000000   0.00018392           -0.00        0.00       27.06

     Energy error            =      1.5E-01 Ry
     Gradient error          =      4.2E-02 Ry/Bohr

     number of scf cycles    =   2
     number of bfgs steps    =   1

     energy             old  =    -413.7563104796 Ry
     energy             new  =    -413.9056107419 Ry

     CASE: energy            _new < energy            _old

     new trust radius        =       0.0434523853 bohr
     new conv_thr            =       0.0000001000 Ry


ATOMIC_POSITIONS (crystal)
O                0.2733891672        0.0342535217        0.8589415162
O                0.7266108328        0.9657464893        0.1410584538
O                0.8589415162        0.2733891672        0.0342535217
O                0.1410584538        0.7266108328        0.9657464893
O                0.0342535217        0.8589415162        0.2733891672
O                0.9657464893        0.1410584538        0.7266108328
O                0.4706763254        0.7483535182        0.3300772567
O                0.5293236746        0.2516464818        0.6699227133
O                0.3300772567        0.4706763254        0.7483535182
O                0.6699227133        0.5293236746        0.2516464818
O                0.7483535182        0.3300772567        0.4706763254
O                0.2516464818        0.6699227133        0.5293236746
H                0.1606726829        0.0608213689        0.8049675031
H                0.8393273031        0.9391786231        0.1950324969
H                0.8049675031        0.1606726829        0.0608213689
H                0.1950324969        0.8393273031        0.9391786231
H                0.0608213689        0.8049675031        0.1606726829
H                0.9391786231        0.1950324969        0.8393273031
H                0.4158253553        0.2012583142        0.9962505468
H                0.5841746447        0.7987417008        0.0037494322
H                0.9962505468        0.4158253553        0.2012583142
H                0.0037494322        0.5841746447        0.7987417008
H                0.2012583142        0.9962505468        0.4158253553
H                0.7987417008        0.0037494322        0.5841746447
H                0.7204543885        0.4005971513        0.3982843823
H                0.2795456115        0.5994028187        0.6017156477
H                0.3982843823        0.7204543885        0.4005971513
H                0.6017156477        0.2795456115        0.5994028187
H                0.4005971513        0.3982843823        0.7204543885
H                0.5994028187        0.6017156477        0.2795456115
H                0.7416213812        0.2067306957        0.3654794378
H                0.2583786188        0.7932692893        0.6345205622
H                0.3654794378        0.7416213812        0.2067306957
H                0.6345205622        0.2583786188        0.7932692893
H                0.2067306957        0.3654794378        0.7416213812
H                0.7932692893        0.6345205622        0.2583786188



     Writing config-only to output data dir ./iceII/iceII.save/ :
     XML data file
     NEW-OLD atomic charge density approx. for the potential

     negative rho (up, down):  5.426E-07 0.000E+00

     total cpu time spent up to now is       27.9 secs

     per-process dynamical memory:    29.2 Mb

     Self-consistent Calculation

     iteration #  1     ecut=    90.00 Ry     beta= 0.70
     Davidson diagonalization with overlap
     ethr =  1.00E-06,  avg # of iterations =  4.4

     negative rho (up, down):  5.207E-07 0.000E+00

     total cpu time spent up to now is       29.3 secs

     total energy              =    -413.92485411 Ry
     estimated scf accuracy    <       0.00253805 Ry

     iteration #  2     ecut=    90.00 Ry     beta= 0.70
     Davidson diagonalization with overlap
     ethr =  2.64E-06,  avg # of iterations =  3.0

     negative rho (up, down):  6.326E-07 0.000E+00

     total cpu time spent up to now is       30.4 secs

     total energy              =    -413.92554008 Ry
     estimated scf accuracy    <       0.00096283 Ry

     iteration #  3     ecut=    90.00 Ry     beta= 0.70
     Davidson diagonalization with overlap
     ethr =  1.00E-06,  avg # of iterations =  2.0

     negative rho (up, down):  7.311E-07 0.000E+00

     total cpu time spent up to now is       31.2 secs

     total energy              =    -413.92568706 Ry
     estimated scf accuracy    <       0.00003136 Ry

     iteration #  4     ecut=    90.00 Ry     beta= 0.70
     Davidson diagonalization with overlap
     ethr =  3.27E-08,  avg # of iterations =  4.1

     negative rho (up, down):  7.189E-07 0.000E+00

     total cpu time spent up to now is       32.4 secs

     total energy              =    -413.92570598 Ry
     estimated scf accuracy    <       0.00003975 Ry

     iteration #  5     ecut=    90.00 Ry     beta= 0.70
     Davidson diagonalization with overlap
     ethr =  3.27E-08,  avg # of iterations =  2.0

     negative rho (up, down):  7.059E-07 0.000E+00

     total cpu time spent up to now is       33.2 secs

     total energy              =    -413.92570710 Ry
     estimated scf accuracy    <       0.00000553 Ry

     iteration #  6     ecut=    90.00 Ry     beta= 0.70
     Davidson diagonalization with overlap
     ethr =  5.76E-09,  avg # of iterations =  3.1

     negative rho (up, down):  7.132E-07 0.000E+00

     total cpu time spent up to now is       34.3 secs

     total energy              =    -413.92570984 Ry
     estimated scf accuracy    <       0.00000299 Ry

     iteration #  7     ecut=    90.00 Ry     beta= 0.70
     Davidson diagonalization with overlap
     ethr =  3.12E-09,  avg # of iterations =  2.0

     negative rho (up, down):  7.162E-07 0.000E+00

     total cpu time spent up to now is       35.1 secs

     total energy              =    -413.92571007 Ry
     estimated scf accuracy    <       0.00000033 Ry

     iteration #  8     ecut=    90.00 Ry     beta= 0.70
     Davidson diagonalization with overlap
     ethr =  3.42E-10,  avg # of iterations =  3.0

     negative rho (up, down):  7.181E-07 0.000E+00

     total cpu time spent up to now is       36.1 secs

     End of self-consistent calculation

          k = 0.0000 0.0000 0.0000 ( 33199 PWs)   bands (ev):

   -21.3340 -21.0075 -21.0075 -20.8338 -20.8338 -20.8232 -20.8232 -20.8118
   -20.7949 -20.5819 -20.5819 -20.3753  -8.9754  -8.8251  -8.7758  -8.7758
    -8.7526  -8.7526  -8.3072  -8.3072  -8.2189  -8.2048  -8.2048  -8.0884
    -7.0811  -6.1281  -6.1281  -5.6657  -5.6657  -5.5559  -5.5559  -5.3014
    -5.2996  -4.6934  -4.6934  -4.1129  -3.3846  -3.3846  -3.3324  -3.1724
    -3.1724  -3.1488  -3.0516  -3.0175  -2.9927  -2.9927  -2.9561  -2.9561

          k =-0.1498-0.0865 0.3111 ( 33198 PWs)   bands (ev):

   -21.2802 -21.0341 -21.0012 -20.9412 -20.9211 -20.8718 -20.7674 -20.7336
   -20.6981 -20.5884 -20.5609 -20.4148  -8.9434  -8.8428  -8.8063  -8.7988
    -8.7426  -8.6996  -8.3128  -8.2910  -8.2222  -8.1768  -8.1598  -8.1267
    -6.9203  -6.2717  -6.1692  -5.9183  -5.7605  -5.5104  -5.4015  -5.2494
    -5.1508  -4.6909  -4.6284  -4.2304  -3.4617  -3.4094  -3.3316  -3.2125
    -3.2029  -3.1676  -3.1387  -3.0410  -3.0068  -2.9499  -2.9406  -2.8996

          k = 0.2996 0.1730-0.6221 ( 33174 PWs)   bands (ev):

   -21.1571 -21.1243 -21.0244 -20.9971 -20.9362 -20.9143 -20.7330 -20.7043
   -20.6205 -20.5801 -20.5288 -20.4966  -8.8900  -8.8737  -8.8293  -8.7953
    -8.7412  -8.6865  -8.2958  -8.2711  -8.2163  -8.2038  -8.1286  -8.1197
    -6.6070  -6.5026  -6.2308  -6.1251  -5.7345  -5.6628  -5.3017  -5.1718
    -4.8492  -4.7629  -4.5807  -4.4057  -3.5314  -3.4219  -3.3369  -3.2592
    -3.2273  -3.2209  -3.1197  -3.0913  -3.0459  -2.9349  -2.9010  -2.8594

          k =-0.1498 0.0865 0.6221 ( 33168 PWs)   bands (ev):

   -21.1744 -21.0721 -21.0635 -20.9805 -20.9578 -20.9138 -20.7288 -20.6746
   -20.6465 -20.5678 -20.5519 -20.4847  -8.8929  -8.8619  -8.8490  -8.7759
    -8.7498  -8.6857  -8.2910  -8.2771  -8.2392  -8.1651  -8.1412  -8.1224
    -6.6405  -6.3941  -6.3673  -5.9860  -5.8320  -5.6860  -5.2654  -5.0899
    -4.9800  -4.6590  -4.6284  -4.4086  -3.5173  -3.4469  -3.3273  -3.2523
    -3.2449  -3.1789  -3.1592  -3.0710  -3.0497  -2.9379  -2.9086  -2.8529

          k = 0.2996 0.3460-0.3111 ( 33194 PWs)   bands (ev):

   -21.2102 -21.0956 -21.0402 -20.9838 -20.9329 -20.8863 -20.7388 -20.6817
   -20.6191 -20.6156 -20.5391 -20.4693  -8.9136  -8.8850  -8.8146  -8.7815
    -8.7461  -8.6800  -8.3549  -8.3296  -8.2573  -8.1491  -8.1224  -8.1046
    -6.6897  -6.4132  -6.2012  -6.0215  -5.9852  -5.5508  -5.1879  -5.1267
    -4.9720  -4.7482  -4.6085  -4.3690  -3.4613  -3.4040  -3.3423  -3.2690
    -3.1911  -3.1533  -3.1146  -3.0951  -3.0405  -2.9787  -2.9097  -2.8402

          k = 0.1498 0.2595 0.0000 ( 33228 PWs)   bands (ev):

   -21.2949 -21.0608 -21.0216 -20.9161 -20.8910 -20.8332 -20.7890 -20.7367
   -20.7044 -20.5910 -20.5636 -20.4065  -8.9576  -8.8541  -8.8038  -8.7971
    -8.7194  -8.7076  -8.3758  -8.3361  -8.2214  -8.1943  -8.1544  -8.0892
    -6.9366  -6.2178  -6.1347  -5.9549  -5.8547  -5.4703  -5.3297  -5.1826
    -5.1563  -4.7381  -4.6710  -4.1919  -3.3832  -3.3731  -3.3476  -3.2288
    -3.1729  -3.1467  -3.0653  -3.0596  -3.0289  -2.9968  -2.9101  -2.8993

          k = 0.2996-0.1730-1.2442 ( 33200 PWs)   bands (ev):

   -21.1983 -21.1797 -21.0332 -20.9512 -20.8928 -20.8485 -20.7534 -20.7211
   -20.6433 -20.6118 -20.4991 -20.4761  -8.9225  -8.8982  -8.8129  -8.8039
    -8.6994  -8.6840  -8.4185  -8.3624  -8.2315  -8.1884  -8.1118  -8.0973
    -6.5886  -6.5723  -6.1597  -6.1083  -5.7852  -5.5770  -5.2162  -5.0903
    -4.9075  -4.9063  -4.5220  -4.3707  -3.3869  -3.3593  -3.3579  -3.2709
    -3.1772  -3.1201  -3.1089  -3.0799  -3.0388  -3.0045  -2.8845  -2.8646

          k = 0.0000 0.0000 0.9332 ( 33189 PWs)   bands (ev):

   -21.1296 -21.1296 -21.0989 -21.0178 -20.9091 -20.9091 -20.6844 -20.6844
   -20.6142 -20.5473 -20.5473 -20.5408  -8.8916  -8.8916  -8.8472  -8.7364
    -8.7364  -8.7239  -8.3726  -8.3070  -8.3070  -8.1128  -8.1128  -8.0922
    -6.4802  -6.4802  -6.4172  -6.1029  -5.7762  -5.7762  -5.0056  -5.0056
    -4.9845  -4.6599  -4.6599  -4.5482  -3.4188  -3.4188  -3.3277  -3.2869
    -3.1650  -3.1650  -3.1318  -3.0815  -3.0815  -2.9486  -2.9486  -2.8191

          k = 0.4494 0.2595 0.0000 ( 33227 PWs)   bands (ev):

   -21.2227 -21.1051 -21.1019 -20.9499 -20.8624 -20.8435 -20.7612 -20.7438
   -20.6477 -20.5692 -20.5396 -20.4615  -8.9267  -8.8805  -8.8506  -8.7655
    -8.7261  -8.6719  -8.4277  -8.3337  -8.2741  -8.1456  -8.1291  -8.0989
    -6.6906  -6.3553  -6.3099  -6.0908  -5.7724  -5.5457  -5.2157  -5.1839
    -4.9373  -4.7311  -4.6260  -4.3461  -3.3734  -3.3717  -3.3553  -3.2734
    -3.1912  -3.1391  -3.0918  -3.0724  -3.0230  -2.9849  -2.9290  -2.8480

          k = 0.2996 0.1730 0.3111 ( 33225 PWs)   bands (ev):

   -21.2441 -21.0682 -21.0074 -20.9877 -20.9124 -20.8822 -20.7446 -20.7306
   -20.6625 -20.5928 -20.5418 -20.4381  -8.9293  -8.8623  -8.8245  -8.7850
    -8.7510  -8.6623  -8.3691  -8.2766  -8.2186  -8.2040  -8.1363  -8.1268
    -6.7926  -6.2928  -6.1898  -6.0109  -5.8906  -5.5463  -5.3138  -5.1724
    -5.0484  -4.7143  -4.6124  -4.2693  -3.4794  -3.4035  -3.3551  -3.2610
    -3.2057  -3.1633  -3.1133  -3.0681  -3.0098  -2.9681  -2.9071  -2.8691

          k = 0.4494-0.2595-0.9332 ( 33227 PWs)   bands (ev):

   -21.1542 -21.1472 -21.0524 -21.0036 -20.9100 -20.8614 -20.7690 -20.7142
   -20.6070 -20.5851 -20.5391 -20.4690  -8.9032  -8.8857  -8.8453  -8.7793
    -8.7434  -8.6376  -8.4031  -8.2887  -8.2223  -8.2066  -8.1305  -8.1216
    -6.5497  -6.4390  -6.2122  -6.1530  -5.8897  -5.5585  -5.3522  -5.1190
    -4.8302  -4.7435  -4.6384  -4.3243  -3.4871  -3.4097  -3.3806  -3.2666
    -3.2294  -3.1951  -3.0759  -3.0415  -3.0302  -2.9786  -2.9085  -2.8368

          k = 0.2996-0.3460-0.6221 ( 33196 PWs)   bands (ev):

   -21.1347 -21.0981 -21.0427 -21.0322 -20.9389 -20.9283 -20.7190 -20.7041
   -20.6054 -20.5925 -20.5386 -20.4818  -8.9066  -8.8465  -8.8266  -8.7950
    -8.7773  -8.6432  -8.3127  -8.2888  -8.2033  -8.1955  -8.1432  -8.1386
    -6.5125  -6.4256  -6.2343  -6.1930  -5.8134  -5.7829  -5.1929  -5.1342
    -4.8330  -4.7919  -4.6215  -4.3408  -3.5570  -3.4235  -3.3837  -3.2892
    -3.2596  -3.1562  -3.1113  -3.0721  -3.0583  -2.9351  -2.9160  -2.8244

          k = 0.0000 0.0000-1.8663 ( 33264 PWs)   bands (ev):

   -21.1106 -21.0665 -21.0400 -21.0400 -20.9780 -20.9780 -20.6712 -20.6712
   -20.6280 -20.6280 -20.5361 -20.4681  -8.9150  -8.8245  -8.8245  -8.7970
    -8.7970  -8.6151  -8.3291  -8.3032  -8.1816  -8.1816  -8.1666  -8.1666
    -6.4373  -6.3831  -6.0658  -6.0658  -6.0583  -6.0583  -5.0357  -5.0357
    -4.8923  -4.8923  -4.5964  -4.2955  -3.5790  -3.4161  -3.4161  -3.3131
    -3.3131  -3.1190  -3.1141  -3.0313  -3.0313  -2.9466  -2.9466  -2.7983

          k = 0.2996-0.3460 0.3111 ( 33194 PWs)   bands (ev):

   -21.2094 -21.1029 -21.0223 -20.9958 -20.9321 -20.8879 -20.7332 -20.6792
   -20.6495 -20.5843 -20.5469 -20.4690  -8.9198  -8.8679  -8.8229  -8.7981
    -8.7243  -8.6874  -8.3671  -8.3192  -8.2538  -8.1481  -8.1256  -8.1045
    -6.6946  -6.3666  -6.2816  -6.0400  -5.8823  -5.5944  -5.2979  -5.0206
    -4.9081  -4.7848  -4.6486  -4.3544  -3.4661  -3.3855  -3.3585  -3.2600
    -3.1882  -3.1604  -3.1168  -3.0931  -3.0584  -2.9569  -2.9100  -2.8458

     highest occupied level (ev):    -2.7983

!    total energy              =    -413.92571013 Ry
     estimated scf accuracy    <       0.00000002 Ry

     The total energy is the sum of the following terms:
     one-electron contribution =    -314.21111607 Ry
     hartree contribution      =     189.42162361 Ry
     xc contribution           =    -101.38973891 Ry
     ewald contribution        =    -187.74647876 Ry

     convergence has been achieved in   8 iterations

     Forces acting on atoms (cartesian axes, Ry/au):

     atom    1 type  2   force =    -0.00785471    0.00884513    0.00888677
     atom    2 type  2   force =     0.00785471   -0.00884513   -0.00888677
     atom    3 type  2   force =    -0.00373275   -0.01122494    0.00888677
     atom    4 type  2   force =     0.00373275    0.01122494   -0.00888677
     atom    5 type  2   force =     0.01158746    0.00237982    0.00888677
     atom    6 type  2   force =    -0.01158746   -0.00237982   -0.00888677
     atom    7 type  2   force =     0.00135981   -0.00640377    0.00123795
     atom    8 type  2   force =    -0.00135981    0.00640377   -0.00123795
     atom    9 type  2   force =     0.00486592    0.00437951    0.00123795
     atom   10 type  2   force =    -0.00486592   -0.00437951   -0.00123795
     atom   11 type  2   force =    -0.00622573    0.00202425    0.00123795
     atom   12 type  2   force =     0.00622573   -0.00202425   -0.00123795
     atom   13 type  1   force =    -0.00676219    0.00094987   -0.02352504
     atom   14 type  1   force =     0.00676219   -0.00094987    0.02352504
     atom   15 type  1   force =     0.00255848   -0.00633117   -0.02352504
     atom   16 type  1   force =    -0.00255848    0.00633117    0.02352504
     atom   17 type  1   force =     0.00420371    0.00538129   -0.02352504
     atom   18 type  1   force =    -0.00420371   -0.00538129    0.02352504
     atom   19 type  1   force =     0.01411917   -0.01332832    0.00959726
     atom   20 type  1   force =    -0.01411917    0.01332832   -0.00959726
     atom   21 type  1   force =     0.00448307    0.01889172    0.00959726
     atom   22 type  1   force =    -0.00448307   -0.01889172   -0.00959726
     atom   23 type  1   force =    -0.01860225   -0.00556341    0.00959726
     atom   24 type  1   force =     0.01860225    0.00556341   -0.00959726
     atom   25 type  1   force =     0.00373439    0.00657257    0.00294842
     atom   26 type  1   force =    -0.00373439   -0.00657257   -0.00294842
     atom   27 type  1   force =    -0.00755921   -0.00005221    0.00294842
     atom   28 type  1   force =     0.00755921    0.00005221   -0.00294842
     atom   29 type  1   force =     0.00382482   -0.00652036    0.00294842
     atom   30 type  1   force =    -0.00382482    0.00652036   -0.00294842
     atom   31 type  1   force =    -0.00229350   -0.00612288    0.00015954
     atom   32 type  1   force =     0.00229350    0.00612288   -0.00015954
     atom   33 type  1   force =     0.00644931    0.00107521    0.00015954
     atom   34 type  1   force =    -0.00644931   -0.00107521   -0.00015954
     atom   35 type  1   force =    -0.00415582    0.00504767    0.00015954
     atom   36 type  1   force =     0.00415582   -0.00504767   -0.00015954

     Total force =     0.092986     Total SCF correction =     0.000119


     Computing stress (Cartesian axis) and pressure

          total   stress  (Ry/bohr**3)                   (kbar)     P=      -10.37
  -0.00010172   0.00000000  -0.00000000          -14.96        0.00       -0.00
  -0.00000000  -0.00010172  -0.00000000           -0.00      -14.96       -0.00
   0.00000000  -0.00000000  -0.00000808            0.00       -0.00       -1.19

     Energy error            =      2.0E-02 Ry
     Gradient error          =      2.4E-02 Ry/Bohr

     number of scf cycles    =   3
     number of bfgs steps    =   2

     energy             old  =    -413.9056107419 Ry
     energy             new  =    -413.9257101297 Ry

     CASE: energy            _new < energy            _old

     new trust radius        =       0.0689948936 bohr
     new conv_thr            =       0.0000001000 Ry


ATOMIC_POSITIONS (crystal)
O                0.2736713139        0.0368733521        0.8608445610
O                0.7263286861        0.9631266589        0.1391554090
O                0.8608445610        0.2736713139        0.0368733521
O                0.1391554090        0.7263286861        0.9631266589
O                0.0368733521        0.8608445610        0.2736713139
O                0.9631266589        0.1391554090        0.7263286861
O                0.4709498987        0.7478401411        0.3304255261
O                0.5290501013        0.2521598589        0.6695744439
O                0.3304255261        0.4709498987        0.7478401411
O                0.6695744439        0.5290501013        0.2521598589
O                0.7478401411        0.3304255261        0.4709498987
O                0.2521598589        0.6695744439        0.5290501013
H                0.1544262704        0.0556851288        0.8001544315
H                0.8455737156        0.9443148632        0.1998455685
H                0.8001544315        0.1544262704        0.0556851288
H                0.1998455685        0.8455737156        0.9443148632
H                0.0556851288        0.8001544315        0.1544262704
H                0.9443148632        0.1998455685        0.8455737156
H                0.4208984451        0.2023190305        0.9983640616
H                0.5791015549        0.7976809845        0.0016359174
H                0.9983640616        0.4208984451        0.2023190305
H                0.0016359174        0.5791015549        0.7976809845
H                0.2023190305        0.9983640616        0.4208984451
H                0.7976809845        0.0016359174        0.5791015549
H                0.7210553483        0.4018960644        0.3983272064
H                0.2789446517        0.5981039056        0.6016728236
H                0.3983272064        0.7210553483        0.4018960644
H                0.6016728236        0.2789446517        0.5981039056
H                0.4018960644        0.3983272064        0.7210553483
H                0.5981039056        0.6016728236        0.2789446517
H                0.7418060190        0.2062572111        0.3663621949
H                0.2581939810        0.7937427739        0.6336378051
H                0.3663621949        0.7418060190        0.2062572111
H                0.6336378051        0.2581939810        0.7937427739
H                0.2062572111        0.3663621949        0.7418060190
H                0.7937427739        0.6336378051        0.2581939810



     Writing config-only to output data dir ./iceII/iceII.save/ :
     XML data file
     NEW-OLD atomic charge density approx. for the potential

     negative rho (up, down):  6.649E-07 0.000E+00

     total cpu time spent up to now is       37.3 secs

     per-process dynamical memory:    32.6 Mb

     Self-consistent Calculation

     iteration #  1     ecut=    90.00 Ry     beta= 0.70
     Davidson diagonalization with overlap
     ethr =  1.00E-06,  avg # of iterations =  7.0

     negative rho (up, down):  8.131E-07 0.000E+00

     total cpu time spent up to now is       39.1 secs

     total energy              =    -413.93869445 Ry
     estimated scf accuracy    <       0.00177348 Ry

     iteration #  2     ecut=    90.00 Ry     beta= 0.70
     Davidson diagonalization with overlap
     ethr =  1.85E-06,  avg # of iterations =  2.4

     negative rho (up, down):  9.508E-07 0.000E+00

     total cpu time spent up to now is       40.0 secs

     total energy              =    -413.93903910 Ry
     estimated scf accuracy    <       0.00027845 Ry

     iteration #  3     ecut=    90.00 Ry     beta= 0.70
     Davidson diagonalization with overlap
     ethr =  2.90E-07,  avg # of iterations =  2.4

     negative rho (up, down):  1.036E-06 0.000E+00

     total cpu time spent up to now is       40.9 secs

     total energy              =    -413.93909942 Ry
     estimated scf accuracy    <       0.00002110 Ry

     iteration #  4     ecut=    90.00 Ry     beta= 0.70
     Davidson diagonalization with overlap
     ethr =  2.20E-08,  avg # of iterations =  2.0

     negative rho (up, down):  1.037E-06 0.000E+00

     total cpu time spent up to now is       41.7 secs

     total energy              =    -413.93910154 Ry
     estimated scf accuracy    <       0.00000203 Ry

     iteration #  5     ecut=    90.00 Ry     beta= 0.70
     Davidson diagonalization with overlap
     ethr =  2.11E-09,  avg # of iterations =  2.6

     negative rho (up, down):  1.034E-06 0.000E+00

     total cpu time spent up to now is       42.7 secs

     End of self-consistent calculation

          k = 0.0000 0.0000 0.0000 ( 33199 PWs)   bands (ev):

   -21.2546 -20.9392 -20.9392 -20.7452 -20.7452 -20.7112 -20.7112 -20.7071
   -20.7029 -20.4564 -20.4564 -20.2585  -8.9380  -8.8036  -8.7773  -8.7773
    -8.7488  -8.7488  -8.4251  -8.4251  -8.3990  -8.3830  -8.3830  -8.2777
    -6.9641  -5.9845  -5.9845  -5.6046  -5.6046  -5.4069  -5.4069  -5.2156
    -5.1353  -4.5846  -4.5846  -4.0075  -3.3701  -3.3701  -3.3153  -3.1569
    -3.1569  -3.1243  -3.0340  -2.9890  -2.9591  -2.9591  -2.9375  -2.9375

          k =-0.1498-0.0865 0.3111 ( 33198 PWs)   bands (ev):

   -21.2025 -20.9633 -20.9418 -20.8378 -20.8049 -20.7773 -20.6710 -20.6346
   -20.6041 -20.4623 -20.4367 -20.2950  -8.9085  -8.8305  -8.7967  -8.7807
    -8.7402  -8.6948  -8.4583  -8.4342  -8.4001  -8.3422  -8.3244  -8.3054
    -6.8048  -6.1479  -6.0275  -5.8175  -5.7024  -5.4186  -5.2121  -5.1577
    -4.9766  -4.5870  -4.5239  -4.1353  -3.4396  -3.3919  -3.3144  -3.1967
    -3.1888  -3.1419  -3.1202  -3.0131  -2.9882  -2.9342  -2.9040  -2.8785

          k = 0.2996 0.1730-0.6221 ( 33174 PWs)   bands (ev):

   -21.0988 -21.0316 -20.9615 -20.8865 -20.8413 -20.8059 -20.6471 -20.5986
   -20.5321 -20.4564 -20.4182 -20.3572  -8.8603  -8.8513  -8.8072  -8.7887
    -8.7356  -8.6753  -8.4539  -8.4412  -8.3857  -8.3658  -8.2940  -8.2823
    -6.4551  -6.4195  -6.0703  -6.0687  -5.6326  -5.6142  -5.0796  -5.0345
    -4.6887  -4.6543  -4.4818  -4.3530  -3.5026  -3.4036  -3.3192  -3.2375
    -3.2074  -3.1987  -3.1003  -3.0872  -3.0157  -2.9218  -2.8635  -2.8398

          k =-0.1498 0.0865 0.6221 ( 33168 PWs)   bands (ev):

   -21.1076 -20.9980 -20.9832 -20.8846 -20.8478 -20.8143 -20.6330 -20.5885
   -20.5448 -20.4506 -20.4319 -20.3512  -8.8634  -8.8366  -8.8311  -8.7740
    -8.7372  -8.6746  -8.4512  -8.4449  -8.4083  -8.3250  -8.3067  -8.2883
    -6.5141  -6.2811  -6.2513  -5.8862  -5.7542  -5.6009  -5.0981  -4.8940
    -4.8402  -4.5734  -4.5065  -4.3556  -3.4892  -3.4246  -3.3131  -3.2330
    -3.2168  -3.1646  -3.1429  -3.0550  -3.0288  -2.9178  -2.8789  -2.8292

          k = 0.2996 0.3460-0.3111 ( 33194 PWs)   bands (ev):

   -21.1346 -21.0235 -20.9757 -20.8749 -20.8191 -20.7924 -20.6462 -20.5932
   -20.5374 -20.4769 -20.4154 -20.3417  -8.8815  -8.8584  -8.7915  -8.7697
    -8.7429  -8.6725  -8.5129  -8.4930  -8.4326  -8.3129  -8.2920  -8.2717
    -6.5725  -6.2664  -6.1025  -5.9439  -5.8674  -5.4457  -5.0350  -4.9285
    -4.8983  -4.6261  -4.5095  -4.2875  -3.4383  -3.3862  -3.3256  -3.2519
    -3.1690  -3.1267  -3.1014  -3.0746  -3.0277  -2.9592  -2.8732  -2.8162

          k = 0.1498 0.2595 0.0000 ( 33228 PWs)   bands (ev):

   -21.2157 -20.9908 -20.9522 -20.8179 -20.7867 -20.7212 -20.7035 -20.6357
   -20.6143 -20.4652 -20.4359 -20.2878  -8.9209  -8.8331  -8.7962  -8.7747
    -8.7182  -8.7119  -8.5243  -8.4801  -8.4020  -8.3550  -8.3180  -8.2721
    -6.8194  -6.0587  -6.0284  -5.8492  -5.7639  -5.3428  -5.2018  -5.0642
    -5.0301  -4.6268  -4.5683  -4.0870  -3.3695  -3.3579  -3.3310  -3.2123
    -3.1539  -3.1185  -3.0557  -3.0340  -3.0057  -2.9724  -2.8825  -2.8702

          k = 0.2996-0.1730-1.2442 ( 33200 PWs)   bands (ev):

   -21.1165 -21.1079 -20.9636 -20.8518 -20.7949 -20.7316 -20.6784 -20.6161
   -20.5564 -20.4796 -20.3846 -20.3451  -8.8891  -8.8659  -8.8005  -8.7774
    -8.6920  -8.6799  -8.5842  -8.5262  -8.4141  -8.3440  -8.2855  -8.2660
    -6.4585  -6.4579  -6.0368  -6.0139  -5.6706  -5.4409  -5.0647  -4.9920
    -4.8296  -4.7516  -4.4167  -4.2741  -3.3717  -3.3432  -3.3417  -3.2561
    -3.1532  -3.0878  -3.0870  -3.0737  -3.0213  -2.9818  -2.8559  -2.8332

          k = 0.0000 0.0000 0.9332 ( 33189 PWs)   bands (ev):

   -21.0513 -21.0496 -21.0496 -20.8811 -20.8179 -20.8179 -20.5827 -20.5827
   -20.5546 -20.4266 -20.4266 -20.3902  -8.8628  -8.8628  -8.8170  -8.7308
    -8.7252  -8.7252  -8.5360  -8.4757  -8.4757  -8.2769  -8.2769  -8.2601
    -6.3635  -6.3635  -6.2131  -6.1014  -5.6686  -5.6686  -4.8592  -4.8592
    -4.7404  -4.5776  -4.5776  -4.5133  -3.3978  -3.3978  -3.3130  -3.2755
    -3.1368  -3.1368  -3.1068  -3.0747  -3.0747  -2.9166  -2.9166  -2.7962

          k = 0.4494 0.2595 0.0000 ( 33227 PWs)   bands (ev):

   -21.1445 -21.0360 -21.0239 -20.8346 -20.7843 -20.7476 -20.6585 -20.6304
   -20.5693 -20.4475 -20.4138 -20.3362  -8.8917  -8.8516  -8.8255  -8.7505
    -8.7210  -8.6654  -8.5928  -8.4966  -8.4508  -8.3145  -8.2907  -8.2736
    -6.5706  -6.2132  -6.1936  -6.0183  -5.6394  -5.4039  -5.1087  -5.0752
    -4.7807  -4.6290  -4.5284  -4.2468  -3.3593  -3.3544  -3.3391  -3.2579
    -3.1686  -3.1166  -3.0710  -3.0582  -3.0001  -2.9623  -2.9036  -2.8154

          k = 0.2996 0.1730 0.3111 ( 33225 PWs)   bands (ev):

   -21.1672 -20.9985 -20.9480 -20.8788 -20.8057 -20.7735 -20.6634 -20.6340
   -20.5490 -20.4828 -20.4163 -20.3137  -8.8945  -8.8418  -8.8081  -8.7607
    -8.7496  -8.6573  -8.5227  -8.4298  -8.3896  -8.3820  -8.3055  -8.2962
    -6.6776  -6.1742  -6.0883  -5.8648  -5.8009  -5.4433  -5.1294  -5.0573
    -4.9607  -4.5803  -4.5101  -4.1771  -3.4562  -3.3840  -3.3365  -3.2398
    -3.1878  -3.1432  -3.0959  -3.0456  -2.9982  -2.9477  -2.8886  -2.8301

          k = 0.4494-0.2595-0.9332 ( 33227 PWs)   bands (ev):

   -21.0860 -21.0683 -20.9830 -20.8926 -20.8116 -20.7638 -20.6704 -20.6166
   -20.5058 -20.4773 -20.4220 -20.3333  -8.8694  -8.8566  -8.8224  -8.7599
    -8.7312  -8.6248  -8.5662  -8.4619  -8.4032  -8.3726  -8.3023  -8.2880
    -6.4379  -6.3246  -6.1172  -6.0413  -5.7417  -5.4112  -5.2314  -5.0262
    -4.7334  -4.5847  -4.5348  -4.2365  -3.4626  -3.3874  -3.3591  -3.2458
    -3.2066  -3.1795  -3.0615  -3.0281  -3.0155  -2.9617  -2.8867  -2.7964

          k = 0.2996-0.3460-0.6221 ( 33196 PWs)   bands (ev):

   -21.0795 -21.0093 -20.9768 -20.9266 -20.8358 -20.8172 -20.6341 -20.6077
   -20.4963 -20.4678 -20.4451 -20.3387  -8.8738  -8.8213  -8.8019  -8.7847
    -8.7657  -8.6302  -8.4703  -8.4630  -8.3763  -8.3621  -8.3117  -8.3056
    -6.3801  -6.3435  -6.1171  -6.0861  -5.7004  -5.6654  -5.0331  -4.9898
    -4.7307  -4.7091  -4.4435  -4.2979  -3.5221  -3.4021  -3.3626  -3.2663
    -3.2351  -3.1496  -3.0918  -3.0590  -3.0399  -2.9201  -2.8962  -2.7871

          k = 0.0000 0.0000-1.8663 ( 33264 PWs)   bands (ev):

   -21.0580 -20.9841 -20.9841 -20.9389 -20.8585 -20.8585 -20.5942 -20.5942
   -20.4879 -20.4879 -20.4645 -20.3240  -8.8778  -8.7987  -8.7987  -8.7805
    -8.7805  -8.5959  -8.4865  -8.4840  -8.3580  -8.3580  -8.3360  -8.3360
    -6.3710  -6.2570  -6.0078  -6.0078  -5.8588  -5.8588  -4.8692  -4.8692
    -4.8439  -4.8439  -4.3989  -4.2548  -3.5354  -3.3934  -3.3934  -3.2905
    -3.2905  -3.1212  -3.0870  -3.0219  -3.0219  -2.9278  -2.9278  -2.7573

          k = 0.2996-0.3460 0.3111 ( 33194 PWs)   bands (ev):

   -21.1331 -21.0345 -20.9604 -20.8762 -20.8268 -20.7930 -20.6278 -20.6066
   -20.5464 -20.4612 -20.4240 -20.3408  -8.8856  -8.8466  -8.8012  -8.7785
    -8.7240  -8.6804  -8.5278  -8.4810  -8.4285  -8.3097  -8.2952  -8.2731
    -6.5720  -6.2757  -6.1132  -5.9189  -5.8440  -5.4852  -5.1064  -4.8695
    -4.8159  -4.6555  -4.5563  -4.2711  -3.4435  -3.3660  -3.3419  -3.2449
    -3.1659  -3.1349  -3.1020  -3.0673  -3.0492  -2.9401  -2.8731  -2.8210

     highest occupied level (ev):    -2.7573

!    total energy              =    -413.93910200 Ry
     estimated scf accuracy    <       0.00000009 Ry

     The total energy is the sum of the following terms:
     one-electron contribution =    -312.44963014 Ry
     hartree contribution      =     188.61395620 Ry
     xc contribution           =    -101.28211021 Ry
     ewald contribution        =    -188.82131784 Ry

     convergence has been achieved in   5 iterations

     Forces acting on atoms (cartesian axes, Ry/au):

     atom    1 type  2   force =    -0.00519823    0.00347664    0.00059757
     atom    2 type  2   force =     0.00519823   -0.00347664   -0.00059757
     atom    3 type  2   force =    -0.00041175   -0.00624012    0.00059757
     atom    4 type  2   force =     0.00041175    0.00624012   -0.00059757
     atom    5 type  2   force =     0.00560997    0.00276348    0.00059757
     atom    6 type  2   force =    -0.00560997   -0.00276348   -0.00059757
     atom    7 type  2   force =    -0.00349848    0.00042719   -0.00467794
     atom    8 type  2   force =     0.00349848   -0.00042719    0.00467794
     atom    9 type  2   force =     0.00137929   -0.00324337   -0.00467794
     atom   10 type  2   force =    -0.00137929    0.00324337    0.00467794
     atom   11 type  2   force =     0.00211920    0.00281618   -0.00467794
     atom   12 type  2   force =    -0.00211920   -0.00281618    0.00467794
     atom   13 type  1   force =    -0.00199874   -0.00648326   -0.00232881
     atom   14 type  1   force =     0.00199874    0.00648326    0.00232881
     atom   15 type  1   force =     0.00661404    0.00151067   -0.00232881
     atom   16 type  1   force =    -0.00661404   -0.00151067    0.00232881
     atom   17 type  1   force =    -0.00461530    0.00497259   -0.00232881
     atom   18 type  1   force =     0.00461530   -0.00497259    0.00232881
     atom   19 type  1   force =     0.00618646    0.00021000   -0.00238414
     atom   20 type  1   force =    -0.00618646   -0.00021000    0.00238414
     atom   21 type  1   force =    -0.00327510    0.00525263   -0.00238414
     atom   22 type  1   force =     0.00327510   -0.00525263    0.00238414
     atom   23 type  1   force =    -0.00291136   -0.00546263   -0.00238414
     atom   24 type  1   force =     0.00291136    0.00546263    0.00238414
     atom   25 type  1   force =     0.00106243   -0.00246582    0.00337933
     atom   26 type  1   force =    -0.00106243    0.00246582   -0.00337933
     atom   27 type  1   force =     0.00160425    0.00215301    0.00337933
     atom   28 type  1   force =    -0.00160425   -0.00215301   -0.00337933
     atom   29 type  1   force =    -0.00266668    0.00031282    0.00337933
     atom   30 type  1   force =     0.00266668   -0.00031282   -0.00337933
     atom   31 type  1   force =    -0.00751824    0.00092632    0.00463042
     atom   32 type  1   force =     0.00751824   -0.00092632   -0.00463042
     atom   33 type  1   force =     0.00295691   -0.00697415    0.00463042
     atom   34 type  1   force =    -0.00295691    0.00697415   -0.00463042
     atom   35 type  1   force =     0.00456134    0.00604783    0.00463042
     atom   36 type  1   force =    -0.00456134   -0.00604783   -0.00463042

     Total force =     0.040001     Total SCF correction =     0.000306


     Computing stress (Cartesian axis) and pressure

          total   stress  (Ry/bohr**3)                   (kbar)     P=      -21.52
  -0.00017039   0.00000000   0.00000000          -25.07        0.00        0.00
  -0.00000000  -0.00017039  -0.00000000           -0.00      -25.07       -0.00
  -0.00000000  -0.00000000  -0.00009818           -0.00       -0.00      -14.44

     Energy error            =      1.3E-02 Ry
     Gradient error          =      7.5E-03 Ry/Bohr

     number of scf cycles    =   4
     number of bfgs steps    =   3

     energy             old  =    -413.9257101297 Ry
     energy             new  =    -413.9391019952 Ry

     CASE: energy            _new < energy            _old

     new trust radius        =       0.0168034740 bohr
     new conv_thr            =       0.0000000752 Ry


ATOMIC_POSITIONS (crystal)
O                0.2733709487        0.0372779923        0.8612207312
O                0.7266290513        0.9627220187        0.1387792388
O                0.8612207312        0.2733709487        0.0372779923
O                0.1387792388        0.7266290513        0.9627220187
O                0.0372779923        0.8612207312        0.2733709487
O                0.9627220187        0.1387792388        0.7266290513
O                0.4704438064        0.7473561295        0.3302070045
O                0.5295561936        0.2526438705        0.6697929655
O                0.3302070045        0.4704438064        0.7473561295
O                0.6697929655        0.5295561936        0.2526438705
O                0.7473561295        0.3302070045        0.4704438064
O                0.2526438705        0.6697929655        0.5295561936
H                0.1530552227        0.0542705192        0.7992748635
H                0.8469447633        0.9457294728        0.2007251365
H                0.7992748635        0.1530552227        0.0542705192
H                0.2007251365        0.8469447633        0.9457294728
H                0.0542705192        0.7992748635        0.1530552227
H                0.9457294728        0.2007251365        0.8469447633
H                0.4220682267        0.2025596345        0.9984677475
H                0.5779317733        0.7974403805        0.0015322315
H                0.9984677475        0.4220682267        0.2025596345
H                0.0015322315        0.5779317733        0.7974403805
H                0.2025596345        0.9984677475        0.4220682267
H                0.7974403805        0.0015322315        0.5779317733
H                0.7215640964        0.4023218413        0.3986371433
H                0.2784359036        0.5976781287        0.6013628867
H                0.3986371433        0.7215640964        0.4023218413
H                0.6013628867        0.2784359036        0.5976781287
H                0.4023218413        0.3986371433        0.7215640964
H                0.5976781287        0.6013628867        0.2784359036
H                0.7419034097        0.2066143559        0.3672173101
H                0.2580965903        0.7933856291        0.6327826899
H                0.3672173101        0.7419034097        0.2066143559
H                0.6327826899        0.2580965903        0.7933856291
H                0.2066143559        0.3672173101        0.7419034097
H                0.7933856291        0.6327826899        0.2580965903



     Writing config-only to output data dir ./iceII/iceII.save/ :
     XML data file
     NEW-OLD atomic charge density approx. for the potential

     negative rho (up, down):  1.082E-06 0.000E+00

     total cpu time spent up to now is       44.0 secs

     per-process dynamical memory:    32.6 Mb

     Self-consistent Calculation

     iteration #  1     ecut=    90.00 Ry     beta= 0.70
     Davidson diagonalization with overlap
     ethr =  1.00E-06,  avg # of iterations =  4.0

     negative rho (up, down):  1.038E-06 0.000E+00

     total cpu time spent up to now is       45.2 secs

     total energy              =    -413.94038308 Ry
     estimated scf accuracy    <       0.00021276 Ry

     iteration #  2     ecut=    90.00 Ry     beta= 0.70
     Davidson diagonalization with overlap
     ethr =  2.22E-07,  avg # of iterations =  2.0

     negative rho (up, down):  1.017E-06 0.000E+00

     total cpu time spent up to now is       46.2 secs

     total energy              =    -413.94043252 Ry
     estimated scf accuracy    <       0.00004297 Ry

     iteration #  3     ecut=    90.00 Ry     beta= 0.70
     Davidson diagonalization with overlap
     ethr =  4.48E-08,  avg # of iterations =  2.0

     negative rho (up, down):  1.011E-06 0.000E+00

     total cpu time spent up to now is       47.0 secs

     total energy              =    -413.94044179 Ry
     estimated scf accuracy    <       0.00000258 Ry

     iteration #  4     ecut=    90.00 Ry     beta= 0.70
     Davidson diagonalization with overlap
     ethr =  2.68E-09,  avg # of iterations =  2.0

     negative rho (up, down):  1.011E-06 0.000E+00

     total cpu time spent up to now is       47.9 secs

     total energy              =    -413.94044214 Ry
     estimated scf accuracy    <       0.00000051 Ry

     iteration #  5     ecut=    90.00 Ry     beta= 0.70
     Davidson diagonalization with overlap
     ethr =  5.35E-10,  avg # of iterations =  2.9

     negative rho (up, down):  1.011E-06 0.000E+00

     total cpu time spent up to now is       48.8 secs

     End of self-consistent calculation

          k = 0.0000 0.0000 0.0000 ( 33199 PWs)   bands (ev):

[...]
H                0.2017871744        0.8538933445        0.9623815668
H                0.0376184252        0.7982128256        0.1461066415
H                0.9623815668        0.2017871744        0.8538933445
H                0.4147015419        0.1824645072        0.9851551726
H                0.5852984581        0.8175355078        0.0148448064
H                0.9851551726        0.4147015419        0.1824645072
H                0.0148448064        0.5852984581        0.8175355078
H                0.1824645072        0.9851551726        0.4147015419
H                0.8175355078        0.0148448064        0.5852984581
H                0.7284087031        0.4114195894        0.4145471184
H                0.2715912969        0.5885803806        0.5854529116
H                0.4145471184        0.7284087031        0.4114195894
H                0.5854529116        0.2715912969        0.5885803806
H                0.4114195894        0.4145471184        0.7284087031
H                0.5885803806        0.5854529116        0.2715912969
H                0.7467914694        0.2161697775        0.3858215797
H                0.2532085306        0.7838302075        0.6141784203
H                0.3858215797        0.7467914694        0.2161697775
H                0.6141784203        0.2532085306        0.7838302075
H                0.2161697775        0.3858215797        0.7467914694
H                0.7838302075        0.6141784203        0.2532085306



     Writing config-only to output data dir ./iceII/iceII.save/ :
     XML data file
     NEW-OLD atomic charge density approx. for the potential

     negative rho (up, down):  3.786E-07 0.000E+00

     total cpu time spent up to now is      385.4 secs

     per-process dynamical memory:    33.0 Mb

     Self-consistent Calculation

     iteration #  1     ecut=    90.00 Ry     beta= 0.70
     Davidson diagonalization with overlap
     ethr =  1.00E-06,  avg # of iterations =  2.0

     Threshold (ethr) on eigenvalues was too large:
     Diagonalizing with lowered threshold

     Davidson diagonalization with overlap
     ethr =  5.16E-10,  avg # of iterations =  5.0

     negative rho (up, down):  3.764E-07 0.000E+00

     total cpu time spent up to now is      387.5 secs

     total energy              =    -413.94994526 Ry
     estimated scf accuracy    <       0.00000087 Ry

     iteration #  2     ecut=    90.00 Ry     beta= 0.70
     Davidson diagonalization with overlap
     ethr =  9.11E-10,  avg # of iterations =  2.0

     negative rho (up, down):  3.757E-07 0.000E+00

     total cpu time spent up to now is      388.3 secs

     total energy              =    -413.94994540 Ry
     estimated scf accuracy    <       0.00000010 Ry

     iteration #  3     ecut=    90.00 Ry     beta= 0.70
     Davidson diagonalization with overlap
     ethr =  1.08E-10,  avg # of iterations =  2.0

     negative rho (up, down):  3.755E-07 0.000E+00

     total cpu time spent up to now is      389.3 secs

     total energy              =    -413.94994543 Ry
     estimated scf accuracy    <          9.4E-09 Ry

     iteration #  4     ecut=    90.00 Ry     beta= 0.70
     Davidson diagonalization with overlap
     ethr =  9.83E-12,  avg # of iterations =  2.0

     negative rho (up, down):  3.754E-07 0.000E+00

     total cpu time spent up to now is      390.0 secs

     End of self-consistent calculation

          k = 0.0000 0.0000 0.0000 ( 33199 PWs)   bands (ev):

   -21.2788 -20.9804 -20.9804 -20.7605 -20.7478 -20.7478 -20.7214 -20.7214
   -20.6915 -20.4437 -20.4437 -20.2277  -8.9045  -8.8048  -8.7374  -8.7374
    -8.7249  -8.7249  -8.4482  -8.4482  -8.3812  -8.3812  -8.3665  -8.3282
    -6.9273  -6.0126  -6.0126  -5.6174  -5.6174  -5.3895  -5.3198  -5.3198
    -5.0690  -4.5663  -4.5663  -3.9251  -3.3697  -3.3697  -3.2553  -3.1610
    -3.1610  -3.1459  -3.0519  -3.0236  -2.9819  -2.9819  -2.9770  -2.9770

          k =-0.1498-0.0865 0.3111 ( 33198 PWs)   bands (ev):

   -21.2303 -20.9976 -20.9838 -20.8433 -20.8301 -20.7906 -20.6859 -20.6364
   -20.6124 -20.4495 -20.4261 -20.2631  -8.8811  -8.8047  -8.7776  -8.7614
    -8.7195  -8.6802  -8.4583  -8.4391  -8.3894  -8.3470  -8.3323  -8.3215
    -6.7788  -6.1545  -6.0314  -5.8251  -5.7211  -5.5053  -5.1457  -5.1351
    -4.9148  -4.5838  -4.5150  -4.0560  -3.4276  -3.3849  -3.2738  -3.2217
    -3.2039  -3.1617  -3.1087  -3.0446  -3.0088  -2.9854  -2.9310  -2.9161

          k = 0.2996 0.1730-0.6221 ( 33174 PWs)   bands (ev):

   -21.1417 -21.0540 -20.9952 -20.8856 -20.8749 -20.8190 -20.6628 -20.5950
   -20.5563 -20.4424 -20.4084 -20.3179  -8.8410  -8.8181  -8.7959  -8.7742
    -8.7283  -8.6641  -8.4431  -8.4262  -8.3980  -8.3653  -8.2957  -8.2842
    -6.4406  -6.4164  -6.0997  -6.0200  -5.6903  -5.6720  -5.0139  -4.9943
    -4.6506  -4.6482  -4.4552  -4.3031  -3.4827  -3.3972  -3.2976  -3.2745
    -3.2337  -3.1538  -3.1302  -3.1133  -3.0166  -2.9800  -2.9013  -2.8813

          k =-0.1498 0.0865 0.6221 ( 33168 PWs)   bands (ev):

   -21.1481 -21.0240 -21.0120 -20.9058 -20.8603 -20.8283 -20.6461 -20.6019
   -20.5525 -20.4400 -20.4207 -20.3132  -8.8410  -8.8111  -8.8042  -8.7788
    -8.7191  -8.6665  -8.4414  -8.4291  -8.4134  -8.3358  -8.3078  -8.2860
    -6.5062  -6.2705  -6.2305  -5.8918  -5.8226  -5.6326  -5.0612  -4.8319
    -4.8065  -4.5711  -4.4818  -4.3004  -3.4753  -3.4041  -3.3137  -3.2574
    -3.2008  -3.1941  -3.1392  -3.0808  -3.0411  -2.9590  -2.9258  -2.8677

          k = 0.2996 0.3460-0.3111 ( 33194 PWs)   bands (ev):

   -21.1652 -21.0566 -21.0090 -20.8933 -20.8296 -20.8016 -20.6673 -20.6131
   -20.5508 -20.4540 -20.4015 -20.3069  -8.8516  -8.8282  -8.7805  -8.7472
    -8.7300  -8.6663  -8.4937  -8.4741  -8.4187  -8.3271  -8.3207  -8.2895
    -6.5576  -6.2545  -6.1362  -5.9616  -5.8521  -5.4582  -5.0722  -4.9029
    -4.8347  -4.5898  -4.4897  -4.2297  -3.4298  -3.3637  -3.3142  -3.2423
    -3.1918  -3.1348  -3.1190  -3.1052  -3.0478  -2.9992  -2.8990  -2.8610

          k = 0.1498 0.2595 0.0000 ( 33228 PWs)   bands (ev):

   -21.2406 -21.0273 -20.9898 -20.8341 -20.7955 -20.7319 -20.7209 -20.6625
   -20.6166 -20.4487 -20.4196 -20.2575  -8.8859  -8.8121  -8.7625  -8.7547
    -8.6981  -8.6955  -8.5053  -8.4768  -8.3867  -8.3732  -8.3364  -8.3183
    -6.7932  -6.0805  -6.0586  -5.8516  -5.7451  -5.3116  -5.2454  -5.0996
    -4.9573  -4.5950  -4.5475  -4.0162  -3.3704  -3.3543  -3.2811  -3.2008
    -3.1554  -3.1392  -3.0908  -3.0634  -3.0431  -3.0045  -2.9131  -2.8953

          k = 0.2996-0.1730-1.2442 ( 33200 PWs)   bands (ev):

   -21.1485 -21.1315 -20.9982 -20.8752 -20.8031 -20.7411 -20.6982 -20.6484
   -20.5613 -20.4565 -20.3757 -20.3072  -8.8517  -8.8365  -8.7700  -8.7600
    -8.6868  -8.6763  -8.5441  -8.5040  -8.3971  -8.3697  -8.3224  -8.3045
    -6.4778  -6.4221  -6.0480  -6.0353  -5.6732  -5.4143  -5.0897  -5.0271
    -4.7899  -4.6804  -4.3927  -4.2185  -3.3682  -3.3329  -3.3087  -3.2364
    -3.1461  -3.1245  -3.1220  -3.0962  -3.0701  -3.0073  -2.8876  -2.8554

          k = 0.0000 0.0000 0.9332 ( 33189 PWs)   bands (ev):

   -21.1060 -21.0686 -21.0686 -20.9023 -20.8278 -20.8278 -20.6096 -20.6096
   -20.5599 -20.4125 -20.4125 -20.3437  -8.8320  -8.8320  -8.8069  -8.7405
    -8.7019  -8.7019  -8.5126  -8.4542  -8.4542  -8.3041  -8.3041  -8.2774
    -6.3300  -6.3300  -6.2182  -6.1727  -5.6775  -5.6775  -4.8780  -4.8780
    -4.6397  -4.5558  -4.5558  -4.4480  -3.3815  -3.3815  -3.3215  -3.2579
    -3.1533  -3.1533  -3.1078  -3.1078  -3.1010  -2.9401  -2.9401  -2.8549

          k = 0.4494 0.2595 0.0000 ( 33227 PWs)   bands (ev):

   -21.1720 -21.0726 -21.0463 -20.8592 -20.7990 -20.7585 -20.6798 -20.6509
   -20.5742 -20.4322 -20.3983 -20.3019  -8.8562  -8.8220  -8.7968  -8.7317
    -8.7018  -8.6745  -8.5532  -8.4780  -8.4316  -8.3410  -8.3218  -8.3142
    -6.5595  -6.2243  -6.1789  -6.0445  -5.6433  -5.3917  -5.1546  -5.0491
    -4.7255  -4.6020  -4.5052  -4.1904  -3.3655  -3.3332  -3.3059  -3.2302
    -3.1821  -3.1422  -3.1068  -3.1023  -3.0267  -2.9896  -2.9299  -2.8411

          k = 0.2996 0.1730 0.3111 ( 33225 PWs)   bands (ev):

   -21.1965 -21.0325 -20.9870 -20.8913 -20.8198 -20.7853 -20.6784 -20.6515
   -20.5524 -20.4688 -20.4048 -20.2806  -8.8650  -8.8076  -8.7876  -8.7493
    -8.7296  -8.6541  -8.5018  -8.4302  -8.3936  -8.3739  -8.3306  -8.3101
    -6.6637  -6.1953  -6.0948  -5.8808  -5.7708  -5.4847  -5.1084  -5.0285
    -4.9307  -4.5539  -4.4912  -4.1167  -3.4516  -3.3566  -3.3020  -3.2556
    -3.2061  -3.1645  -3.1031  -3.0579  -3.0419  -2.9878  -2.9414  -2.8436

          k = 0.4494-0.2595-0.9332 ( 33227 PWs)   bands (ev):

   -21.1293 -21.0876 -21.0135 -20.9108 -20.8243 -20.7815 -20.6820 -20.6349
   -20.5172 -20.4588 -20.4112 -20.2974  -8.8355  -8.8242  -8.7935  -8.7472
    -8.7231  -8.6367  -8.5285  -8.4497  -8.3937  -8.3847  -8.3270  -8.3099
    -6.4706  -6.2921  -6.1483  -6.0324  -5.7260  -5.4238  -5.2141  -5.0003
    -4.7298  -4.5274  -4.5091  -4.2028  -3.4594  -3.3467  -3.3284  -3.2598
    -3.2308  -3.1903  -3.0940  -3.0563  -3.0356  -3.0068  -2.9355  -2.8070

          k = 0.2996-0.3460-0.6221 ( 33196 PWs)   bands (ev):

   -21.1247 -21.0350 -21.0095 -20.9394 -20.8473 -20.8275 -20.6525 -20.6223
   -20.5049 -20.4523 -20.4344 -20.3029  -8.8378  -8.8002  -8.7859  -8.7707
    -8.7521  -8.6390  -8.4593  -8.4361  -8.3906  -8.3696  -8.3132  -8.3046
    -6.4169  -6.3377  -6.1119  -6.0628  -5.7101  -5.6710  -5.0261  -4.9684
    -4.7032  -4.6708  -4.3766  -4.2922  -3.5094  -3.3742  -3.3318  -3.2922
    -3.2439  -3.2003  -3.0907  -3.0832  -3.0281  -2.9816  -2.9564  -2.8078

          k = 0.0000 0.0000-1.8663 ( 33264 PWs)   bands (ev):

   -21.1066 -21.0172 -21.0172 -20.9489 -20.8638 -20.8638 -20.6163 -20.6163
   -20.4807 -20.4662 -20.4662 -20.2895  -8.8323  -8.7782  -8.7782  -8.7683
    -8.7683  -8.6245  -8.4742  -8.4440  -8.3763  -8.3763  -8.3315  -8.3315
    -6.4402  -6.2580  -5.9993  -5.9993  -5.8255  -5.8255  -4.8943  -4.8943
    -4.7832  -4.7832  -4.3168  -4.2716  -3.5167  -3.3535  -3.3535  -3.3180
    -3.3180  -3.1937  -3.0432  -3.0432  -3.0287  -2.9989  -2.9989  -2.7714

          k = 0.2996-0.3460 0.3111 ( 33194 PWs)   bands (ev):

   -21.1639 -21.0657 -20.9970 -20.8963 -20.8328 -20.8022 -20.6559 -20.6219
   -20.5548 -20.4407 -20.4116 -20.3060  -8.8565  -8.8158  -8.7810  -8.7611
    -8.7242  -8.6649  -8.4985  -8.4715  -8.4159  -8.3317  -8.3136  -8.2928
    -6.5571  -6.2799  -6.1115  -5.9473  -5.8427  -5.4959  -5.1094  -4.8474
    -4.7882  -4.6150  -4.5288  -4.2162  -3.4342  -3.3485  -3.3222  -3.2452
    -3.1833  -3.1506  -3.1156  -3.0817  -3.0784  -2.9861  -2.9003  -2.8615

     highest occupied level (ev):    -2.7714

!    total energy              =    -413.94994543 Ry
     estimated scf accuracy    <          6.9E-10 Ry

     The total energy is the sum of the following terms:
     one-electron contribution =    -310.06904331 Ry
     hartree contribution      =     187.45214148 Ry
     xc contribution           =    -101.33126615 Ry
     ewald contribution        =    -190.00177744 Ry

     convergence has been achieved in   4 iterations

     Forces acting on atoms (cartesian axes, Ry/au):

     atom    1 type  2   force =    -0.00004140    0.00002895    0.00010119
     atom    2 type  2   force =     0.00004140   -0.00002895   -0.00010119
     atom    3 type  2   force =    -0.00000437   -0.00005033    0.00010119
     atom    4 type  2   force =     0.00000437    0.00005033   -0.00010119
     atom    5 type  2   force =     0.00004577    0.00002138    0.00010119
     atom    6 type  2   force =    -0.00004577   -0.00002138   -0.00010119
     atom    7 type  2   force =    -0.00001061   -0.00005080   -0.00007051
     atom    8 type  2   force =     0.00001061    0.00005080    0.00007051
     atom    9 type  2   force =     0.00004930    0.00001621   -0.00007051
     atom   10 type  2   force =    -0.00004930   -0.00001621    0.00007051
     atom   11 type  2   force =    -0.00003869    0.00003459   -0.00007051
     atom   12 type  2   force =     0.00003869   -0.00003459    0.00007051
     atom   13 type  1   force =     0.00000018   -0.00009102   -0.00002219
     atom   14 type  1   force =    -0.00000018    0.00009102    0.00002219
     atom   15 type  1   force =     0.00007874    0.00004566   -0.00002219
     atom   16 type  1   force =    -0.00007874   -0.00004566    0.00002219
     atom   17 type  1   force =    -0.00007891    0.00004536   -0.00002219
     atom   18 type  1   force =     0.00007891   -0.00004536    0.00002219
     atom   19 type  1   force =     0.00002614    0.00001195   -0.00001394
     atom   20 type  1   force =    -0.00002614   -0.00001195    0.00001394
     atom   21 type  1   force =    -0.00002341    0.00001666   -0.00001394
     atom   22 type  1   force =     0.00002341   -0.00001666    0.00001394
     atom   23 type  1   force =    -0.00000272   -0.00002861   -0.00001394
     atom   24 type  1   force =     0.00000272    0.00002861    0.00001394
     atom   25 type  1   force =    -0.00012170    0.00001927   -0.00011352
     atom   26 type  1   force =     0.00012170   -0.00001927    0.00011352
     atom   27 type  1   force =     0.00004416   -0.00011503   -0.00011352
     atom   28 type  1   force =    -0.00004416    0.00011503    0.00011352
     atom   29 type  1   force =     0.00007754    0.00009576   -0.00011352
     atom   30 type  1   force =    -0.00007754   -0.00009576    0.00011352
     atom   31 type  1   force =     0.00004918    0.00003319    0.00010059
     atom   32 type  1   force =    -0.00004918   -0.00003319   -0.00010059
     atom   33 type  1   force =    -0.00005333    0.00002599    0.00010059
     atom   34 type  1   force =     0.00005333   -0.00002599   -0.00010059
     atom   35 type  1   force =     0.00000416   -0.00005918    0.00010059
     atom   36 type  1   force =    -0.00000416    0.00005918   -0.00010059

     Total force =     0.000657     Total SCF correction =     0.000047


     Computing stress (Cartesian axis) and pressure

          total   stress  (Ry/bohr**3)                   (kbar)     P=      -17.44
  -0.00013621   0.00000000   0.00000000          -20.04        0.00        0.00
  -0.00000000  -0.00013621  -0.00000000           -0.00      -20.04       -0.00
   0.00000000  -0.00000000  -0.00008326            0.00       -0.00      -12.25

     Energy error            =      1.6E-06 Ry
     Gradient error          =      1.2E-04 Ry/Bohr

     number of scf cycles    =  50
     number of bfgs steps    =  49

     energy             old  =    -413.9499438285 Ry
     energy             new  =    -413.9499454270 Ry

     CASE: energy            _new < energy            _old

     new trust radius        =       0.0015715238 bohr

     The maximum number of steps has been reached.

     End of BFGS Geometry Optimization

ATOMIC_POSITIONS (crystal)
O                0.2647334143        0.0174823233        0.8565170100
O                0.7352665857        0.9825176877        0.1434829600
O                0.8565170100        0.2647334143        0.0174823233
O                0.1434829600        0.7352665857        0.9825176877
O                0.0174823233        0.8565170100        0.2647334143
O                0.9825176877        0.1434829600        0.7352665857
O                0.4876290217        0.7507649385        0.3391276182
O                0.5123709783        0.2492350615        0.6608723518
O                0.3391276182        0.4876290217        0.7507649385
O                0.6608723518        0.5123709783        0.2492350615
O                0.7507649385        0.3391276182        0.4876290217
O                0.2492350615        0.6608723518        0.5123709783
H                0.1461355354        0.0375428718        0.7982089985
H                0.8538644506        0.9624571202        0.2017910015
H                0.7982089985        0.1461355354        0.0375428718
H                0.2017910015        0.8538644506        0.9624571202
H                0.0375428718        0.7982089985        0.1461355354
H                0.9624571202        0.2017910015        0.8538644506
H                0.4147650469        0.1824334015        0.9851590155
H                0.5852349531        0.8175666135        0.0148409635
H                0.9851590155        0.4147650469        0.1824334015
H                0.0148409635        0.5852349531        0.8175666135
H                0.1824334015        0.9851590155        0.4147650469
H                0.8175666135        0.0148409635        0.5852349531
H                0.7284348821        0.4114665140        0.4146731824
H                0.2715651179        0.5885334560        0.5853268476
H                0.4146731824        0.7284348821        0.4114665140
H                0.5853268476        0.2715651179        0.5885334560
H                0.4114665140        0.4146731824        0.7284348821
H                0.5885334560        0.5853268476        0.2715651179
H                0.7468014562        0.2162091270        0.3858541213
H                0.2531985438        0.7837908580        0.6141458787
H                0.3858541213        0.7468014562        0.2162091270
H                0.6141458787        0.2531985438        0.7837908580
H                0.2162091270        0.3858541213        0.7468014562
H                0.7837908580        0.6141458787        0.2531985438



     Writing config-only to output data dir ./iceII/iceII.save/ :
     XML data file
     NEW-OLD atomic charge density approx. for the potential

     negative rho (up, down):  3.719E-07 0.000E+00

     Writing all to output data dir ./iceII/iceII.save/ :
     XML data file, charge density, pseudopotentials, collected wavefunctions

     init_run     :      1.25s CPU      1.32s WALL (       1 calls)
     electrons    :    322.04s CPU    327.34s WALL (      50 calls)
     update_pot   :      1.48s CPU      1.56s WALL (      50 calls)
     forces       :      7.37s CPU      7.39s WALL (      50 calls)
     stress       :     49.33s CPU     49.38s WALL (      50 calls)

     Called by init_run:
     wfcinit      :      0.36s CPU      0.38s WALL (       1 calls)
     potinit      :      0.03s CPU      0.05s WALL (       1 calls)
     hinit0       :      0.67s CPU      0.69s WALL (       1 calls)

     Called by electrons:
     c_bands      :    271.87s CPU    274.22s WALL (     338 calls)
     sum_band     :     39.07s CPU     39.35s WALL (     338 calls)
     v_of_rho     :      8.50s CPU      8.65s WALL (     361 calls)
     newd         :      1.39s CPU      1.42s WALL (     361 calls)
     mix_rho      :      1.05s CPU      1.06s WALL (     338 calls)

     Called by c_bands:
     init_us_2    :      5.19s CPU      5.37s WALL (    3108 calls)
     cegterg      :    263.19s CPU    264.69s WALL (    1352 calls)

     Called by *egterg:
     cdiaghg      :     18.79s CPU     18.83s WALL (    4855 calls)
     h_psi        :    197.69s CPU    199.08s WALL (    5167 calls)
     s_psi        :      9.04s CPU      9.06s WALL (    5167 calls)
     g_psi        :      0.58s CPU      0.58s WALL (    3811 calls)

     Called by h_psi:
     h_psi:calbec :     14.37s CPU     14.45s WALL (    5167 calls)
     vloc_psi     :    172.85s CPU    174.13s WALL (    5167 calls)
     add_vuspsi   :      9.01s CPU      9.05s WALL (    5167 calls)

     General routines
     calbec       :     21.73s CPU     21.86s WALL (    7519 calls)
     fft          :      5.71s CPU      5.87s WALL (    4449 calls)
     ffts         :      0.40s CPU      0.41s WALL (     338 calls)
     fftw         :    180.36s CPU    181.61s WALL (  461922 calls)
     davcio       :      0.00s CPU      0.00s WALL (       4 calls)

     Parallel routines

     PWSCF        :   6m25.21s CPU   6m31.86s WALL


   This run was terminated on:  20:10:21  31Mar2026            

=------------------------------------------------------------------------------=
   JOB DONE.
=------------------------------------------------------------------------------=
