
     Program PWSCF v.7.3.1 starts on 31Mar2026 at 20:10:23 

     This program is part of the open-source Quantum ESPRESSO suite
     for quantum simulation of materials; please cite
         "P. Giannozzi et al., J. Phys.:Condens. Matter 21 395502 (2009);
         "P. Giannozzi et al., J. Phys.:Condens. Matter 29 465901 (2017);
         "P. Giannozzi et al., J. Chem. Phys. 152 154105 (2020);
          URL http://www.quantum-espresso.org", 
     in publications or presentations arising from this work. More details at
     http://www.quantum-espresso.org/quote

     Parallel version (MPI), running on   128 processors

     MPI processes distributed on     1 nodes
     498377 MiB available memory on the printing compute node when the environment starts

     Waiting for input...
     Reading input from standard input

     Current dimensions of program PWSCF are:
     Max number of different atomic species (ntypx) = 10
     Max number of k-points (npk) =  40000
     Max angular momentum in pseudopotentials (lmaxx) =  4

     File ./iceII/iceII.update deleted, as requested

     File ./iceII/iceII.bfgs deleted, as requested

     K-points division:     npool     =       4
     R & G space division:  proc/nbgrp/npool/nimage =      32
     Subspace diagonalization in iterative solution of the eigenvalue problem:
     a serial algorithm will be used


     Parallelization info
     --------------------
     sticks:   dense  smooth     PW     G-vecs:    dense   smooth      PW
     Min         193     193     55                 8374     8374    1314
     Max         194     194     56                 8377     8377    1319
     Sum        6187    6187   1791               268003   268003   42145

     Using Slab Decomposition



     bravais-lattice index     =            5
     lattice parameter (alat)  =      15.3196  a.u.
     unit-cell volume          =    2322.9018 (a.u.)^3
     number of atoms/cell      =           36
     number of atomic types    =            2
     number of electrons       =        96.00
     number of Kohn-Sham states=           48
     kinetic-energy cutoff     =      90.0000  Ry
     charge density cutoff     =     360.0000  Ry
     scf convergence threshold =      1.0E-07
     mixing beta               =       0.7000
     number of iterations used =            8  plain     mixing
     energy convergence thresh.=      1.0E-04
     force convergence thresh. =      1.0E-04
     Exchange-correlation=  SLA  PW   PBE  PBE
                           (   1   4   3   4   0   0   0)
     nstep                     =           50


     celldm(1)=  15.319555  celldm(2)=   0.000000  celldm(3)=   0.000000
     celldm(4)=  -0.392337  celldm(5)=   0.000000  celldm(6)=   0.000000

     crystal axes: (cart. coord. in units of alat)
               a(1) = (   0.834367  -0.481722   0.267909 )  
               a(2) = (   0.000000   0.963444   0.267909 )  
               a(3) = (  -0.834367  -0.481722   0.267909 )  

     reciprocal axes: (cart. coord. in units 2 pi/alat)
               b(1) = (  0.599257 -0.345981  1.244203 )  
               b(2) = (  0.000000  0.691962  1.244203 )  
               b(3) = ( -0.599257 -0.345981  1.244203 )  


     PseudoPot. # 1 for H  read from file:
     ./H.pbe-van_ak.UPF
     MD5 check sum: 077eb6d537518a38cb46c6de387227b7
     Pseudo is Ultrasoft, Zval =  1.0
     Generated by new atomic code, or converted to UPF format
     Using radial grid of  615 points,  1 beta functions with: 
                l(1) =   0
     Q(r) pseudized with  8 coefficients,  rinner =    0.800

     PseudoPot. # 2 for O  read from file:
     ./O.pbe-van_ak.UPF
     MD5 check sum: 78c19812648e8988a0fe644b0f25305e
     Pseudo is Ultrasoft, Zval =  6.0
     Generated by new atomic code, or converted to UPF format
     Using radial grid of  737 points,  4 beta functions with: 
                l(1) =   0
                l(2) =   0
                l(3) =   1
                l(4) =   1
     Q(r) pseudized with  8 coefficients,  rinner =    0.800   0.800   0.800


     atomic species   valence    mass     pseudopotential
     H                 1.00     1.00800     H ( 1.00)
     O                 6.00    16.00000     O ( 1.00)

      6 Sym. Ops., with inversion, found



   Cartesian axes

     site n.     atom                  positions (alat units)
         1        O      tau(   1) = (  -0.4847673  -0.5197781   0.3083633  )
         2        O      tau(   2) = (   0.4847673   0.5197782   0.4953638  )
         3        O      tau(   3) = (   0.6925247  -0.1599317   0.3083633  )
         4        O      tau(   4) = (  -0.6925248   0.1599317   0.4953638  )
         5        O      tau(   5) = (  -0.2077574   0.6797099   0.3083633  )
         6        O      tau(   6) = (   0.2077574  -0.6797099   0.4953638  )
         7        O      tau(   7) = (   0.1218176   0.3323883   0.4179381  )
         8        O      tau(   8) = (  -0.1218176  -0.3323883   0.3857890  )
         9        O      tau(   9) = (  -0.3487655  -0.0606970   0.4179381  )
        10        O      tau(  10) = (   0.3487655   0.0606970   0.3857890  )
        11        O      tau(  11) = (   0.2269479  -0.2716913   0.4179381  )
        12        O      tau(  12) = (  -0.2269479   0.2716912   0.3857890  )
        13        H      tau(  13) = (  -0.5381668  -0.4032014   0.2796970  )
        14        H      tau(  14) = (   0.5381668   0.4032014   0.5240301  )
        15        H      tau(  15) = (   0.6182661  -0.2644654   0.2796970  )
        16        H      tau(  16) = (  -0.6182661   0.2644654   0.5240301  )
        17        H      tau(  17) = (  -0.0800993   0.6676668   0.2796970  )
        18        H      tau(  18) = (   0.0800993  -0.6676668   0.5240301  )
        19        H      tau(  19) = (  -0.4872704  -0.4817221   0.4326731  )
        20        H      tau(  20) = (   0.4872704   0.4817221   0.3710540  )
        21        H      tau(  21) = (   0.6608188  -0.1811275   0.4326731  )
        22        H      tau(  22) = (  -0.6608188   0.1811275   0.3710540  )
        23        H      tau(  23) = (  -0.1735484   0.6628496   0.4326731  )
        24        H      tau(  24) = (   0.1735484  -0.6628496   0.3710540  )
        25        H      tau(  25) = (   0.2703349  -0.1502973   0.4058822  )
        26        H      tau(  26) = (  -0.2703350   0.1502973   0.3978449  )
        27        H      tau(  27) = (  -0.0050062   0.3092656   0.4058822  )
        28        H      tau(  28) = (   0.0050062  -0.3092656   0.3978449  )
        29        H      tau(  29) = (  -0.2653287  -0.1589683   0.4058822  )
        30        H      tau(  30) = (   0.2653287   0.1589683   0.3978449  )
        31        H      tau(  31) = (   0.3178939  -0.3347969   0.3493534  )
        32        H      tau(  32) = (  -0.3178939   0.3347969   0.4543737  )
        33        H      tau(  33) = (   0.1309957   0.4427026   0.3493534  )
        34        H      tau(  34) = (  -0.1309956  -0.4427026   0.4543737  )
        35        H      tau(  35) = (  -0.4488895  -0.1079057   0.3493534  )
        36        H      tau(  36) = (   0.4488895   0.1079057   0.4543737  )

     number of k points=    14
                       cart. coord. in units 2pi/alat
        k(    1) = (   0.0000000   0.0000000   0.0000000), wk =   0.0312500
        k(    2) = (  -0.1498141  -0.0864952   0.3110508), wk =   0.1875000
        k(    3) = (   0.2996283   0.1729905  -0.6221017), wk =   0.0937500
        k(    4) = (  -0.1498141   0.0864952   0.6221017), wk =   0.1875000
        k(    5) = (   0.2996283   0.3459809  -0.3110508), wk =   0.1875000
        k(    6) = (   0.1498141   0.2594857   0.0000000), wk =   0.1875000
        k(    7) = (   0.2996283  -0.1729905  -1.2442034), wk =   0.0937500
        k(    8) = (   0.0000000   0.0000000   0.9331525), wk =   0.0625000
        k(    9) = (   0.4494424   0.2594857   0.0000000), wk =   0.1875000
        k(   10) = (   0.2996283   0.1729905   0.3110508), wk =   0.1875000
        k(   11) = (   0.4494424  -0.2594857  -0.9331525), wk =   0.1875000
        k(   12) = (   0.2996283  -0.3459809  -0.6221017), wk =   0.1875000
        k(   13) = (   0.0000000   0.0000000  -1.8663050), wk =   0.0312500
        k(   14) = (   0.2996283  -0.3459809   0.3110508), wk =   0.1875000

     Dense  grid:   268003 G-vectors     FFT dimensions: (  96,  96,  96)

     Estimated max dynamical RAM per process >      17.36 MB

     Estimated total dynamical RAM >       1.98 GB

     Initial potential from superposition of free atoms

     starting charge      95.9998, renormalised to      96.0000
     Starting wfcs are   72 randomized atomic wfcs

     total cpu time spent up to now is        1.5 secs

     per-process dynamical memory:    21.6 Mb

     Self-consistent Calculation

     iteration #  1     ecut=    90.00 Ry     beta= 0.70
     Davidson diagonalization with overlap
     ethr =  1.00E-02,  avg # of iterations =  2.0

     negative rho (up, down):  2.270E-07 0.000E+00

     total cpu time spent up to now is        2.5 secs

     total energy              =    -412.17544154 Ry
     estimated scf accuracy    <       3.61300171 Ry

     iteration #  2     ecut=    90.00 Ry     beta= 0.70
     Davidson diagonalization with overlap
     ethr =  3.76E-03,  avg # of iterations =  3.0

     negative rho (up, down):  2.281E-07 0.000E+00

     total cpu time spent up to now is        3.6 secs

     total energy              =    -413.29903479 Ry
     estimated scf accuracy    <       2.73700602 Ry

     iteration #  3     ecut=    90.00 Ry     beta= 0.70
     Davidson diagonalization with overlap
     ethr =  2.85E-03,  avg # of iterations =  2.0

     negative rho (up, down):  3.538E-07 0.000E+00

     total cpu time spent up to now is        4.4 secs

     total energy              =    -413.63803580 Ry
     estimated scf accuracy    <       0.12870599 Ry

     iteration #  4     ecut=    90.00 Ry     beta= 0.70
     Davidson diagonalization with overlap
     ethr =  1.34E-04,  avg # of iterations =  4.0

     negative rho (up, down):  5.855E-07 0.000E+00

     total cpu time spent up to now is        5.7 secs

     total energy              =    -413.73880784 Ry
     estimated scf accuracy    <       0.14367453 Ry

     iteration #  5     ecut=    90.00 Ry     beta= 0.70
     Davidson diagonalization with overlap
     ethr =  1.34E-04,  avg # of iterations =  1.6

     negative rho (up, down):  8.297E-07 0.000E+00

     total cpu time spent up to now is        6.4 secs

     total energy              =    -413.74115611 Ry
     estimated scf accuracy    <       0.02539916 Ry

     iteration #  6     ecut=    90.00 Ry     beta= 0.70
     Davidson diagonalization with overlap
     ethr =  2.65E-05,  avg # of iterations =  2.0

     negative rho (up, down):  1.019E-06 0.000E+00

     total cpu time spent up to now is        7.3 secs

     total energy              =    -413.74295582 Ry
     estimated scf accuracy    <       0.00447836 Ry

     iteration #  7     ecut=    90.00 Ry     beta= 0.70
     Davidson diagonalization with overlap
     ethr =  4.66E-06,  avg # of iterations =  3.2

     negative rho (up, down):  1.048E-06 0.000E+00

     total cpu time spent up to now is        8.3 secs

     total energy              =    -413.74413980 Ry
     estimated scf accuracy    <       0.00008346 Ry

     iteration #  8     ecut=    90.00 Ry     beta= 0.70
     Davidson diagonalization with overlap
     ethr =  8.69E-08,  avg # of iterations =  6.0

     negative rho (up, down):  1.025E-06 0.000E+00

     total cpu time spent up to now is        9.8 secs

     total energy              =    -413.74424443 Ry
     estimated scf accuracy    <       0.00050809 Ry

     iteration #  9     ecut=    90.00 Ry     beta= 0.70
     Davidson diagonalization with overlap
     ethr =  8.69E-08,  avg # of iterations =  2.0

     negative rho (up, down):  9.668E-07 0.000E+00

     total cpu time spent up to now is       10.5 secs

     total energy              =    -413.74412146 Ry
     estimated scf accuracy    <       0.00030861 Ry

     iteration # 10     ecut=    90.00 Ry     beta= 0.70
     Davidson diagonalization with overlap
     ethr =  8.69E-08,  avg # of iterations =  3.0

     negative rho (up, down):  9.608E-07 0.000E+00

     total cpu time spent up to now is       11.6 secs

     total energy              =    -413.74416518 Ry
     estimated scf accuracy    <       0.00000933 Ry

     iteration # 11     ecut=    90.00 Ry     beta= 0.70
     Davidson diagonalization with overlap
     ethr =  9.71E-09,  avg # of iterations =  3.1

     negative rho (up, down):  9.602E-07 0.000E+00

     total cpu time spent up to now is       12.5 secs

     total energy              =    -413.74416752 Ry
     estimated scf accuracy    <       0.00000112 Ry

     iteration # 12     ecut=    90.00 Ry     beta= 0.70
     Davidson diagonalization with overlap
     ethr =  1.16E-09,  avg # of iterations =  3.0

     negative rho (up, down):  9.607E-07 0.000E+00

     total cpu time spent up to now is       13.5 secs

     total energy              =    -413.74416767 Ry
     estimated scf accuracy    <       0.00000023 Ry

     iteration # 13     ecut=    90.00 Ry     beta= 0.70
     Davidson diagonalization with overlap
     ethr =  2.42E-10,  avg # of iterations =  2.6

     negative rho (up, down):  9.616E-07 0.000E+00

     total cpu time spent up to now is       14.4 secs

     End of self-consistent calculation

          k = 0.0000 0.0000 0.0000 ( 33553 PWs)   bands (ev):

   -20.8624 -20.5030 -20.5030 -20.3225 -20.3225 -20.2974 -20.2974 -20.2911
   -20.2846 -20.0465 -20.0465 -19.7966  -8.3324  -8.1568  -8.0976  -8.0976
    -8.0479  -8.0479  -7.6297  -7.4917  -7.4917  -7.2906  -7.2906  -7.1830
    -7.1187  -6.3623  -6.3623  -5.8493  -5.8493  -5.7596  -5.7596  -5.5057
    -5.3466  -4.7499  -4.7499  -4.1344  -3.2838  -3.2838  -3.1981  -3.1258
    -3.0878  -3.0878  -2.9595  -2.9595  -2.9589  -2.9410  -2.9007  -2.9007

          k =-0.1498-0.0865 0.3111 ( 33497 PWs)   bands (ev):

   -20.8036 -20.5362 -20.4943 -20.4372 -20.4158 -20.3580 -20.2441 -20.2090
   -20.1664 -20.0509 -20.0178 -19.8445  -8.2853  -8.2154  -8.1451  -8.1068
    -8.0281  -7.9722  -7.6192  -7.4587  -7.4534  -7.3224  -7.2187  -7.1841
    -7.0146  -6.4898  -6.3811  -6.1346  -5.8425  -5.7404  -5.6008  -5.4062
    -5.3523  -4.7429  -4.6854  -4.2594  -3.3764  -3.3161  -3.2163  -3.1646
    -3.1188  -3.0923  -3.0550  -2.9960  -2.9467  -2.9076  -2.8848  -2.8433

          k = 0.2996 0.1730-0.6221 ( 33488 PWs)   bands (ev):

   -20.6552 -20.6482 -20.5156 -20.5140 -20.4159 -20.4143 -20.1958 -20.1944
   -20.0566 -20.0526 -19.9637 -19.9558  -8.2676  -8.2147  -8.1372  -8.1218
    -8.0265  -7.9764  -7.5697  -7.4624  -7.4298  -7.3307  -7.1510  -7.1491
    -6.8134  -6.6864  -6.4316  -6.2745  -5.8507  -5.7753  -5.6036  -5.4596
    -4.9893  -4.8548  -4.6293  -4.4155  -3.4603  -3.3303  -3.2384  -3.2091
    -3.1503  -3.1367  -3.0581  -3.0115  -2.9872  -2.8774  -2.8694  -2.8035

          k =-0.1498 0.0865 0.6221 ( 33454 PWs)   bands (ev):

   -20.6853 -20.5773 -20.5719 -20.4778 -20.4577 -20.4047 -20.2036 -20.1388
   -20.1118 -20.0181 -20.0027 -19.9325  -8.2740  -8.1939  -8.1780  -8.0796
    -8.0458  -7.9660  -7.5762  -7.4897  -7.4479  -7.2482  -7.1911  -7.1454
    -6.8171  -6.6295  -6.5476  -6.1314  -5.9798  -5.8154  -5.5336  -5.3500
    -5.1594  -4.7115  -4.6901  -4.4227  -3.4425  -3.3651  -3.2280  -3.1886
    -3.1606  -3.1163  -3.0824  -3.0077  -2.9812  -2.8862  -2.8712  -2.7987

          k = 0.2996 0.3460-0.3111 ( 33494 PWs)   bands (ev):

   -20.7263 -20.6027 -20.5252 -20.4944 -20.4383 -20.3787 -20.2090 -20.1274
   -20.1145 -20.0513 -19.9981 -19.9117  -8.2781  -8.2577  -8.1217  -8.1027
    -8.0509  -7.9675  -7.5954  -7.5429  -7.4353  -7.2209  -7.1913  -7.1364
    -6.9270  -6.6686  -6.4564  -6.1420  -6.1149  -5.6799  -5.5067  -5.2686
    -5.0646  -4.8510  -4.6676  -4.4030  -3.3735  -3.3120  -3.2416  -3.1786
    -3.1351  -3.0932  -3.0380  -3.0327  -2.9641  -2.9251  -2.8752  -2.7899

          k = 0.1498 0.2595 0.0000 ( 33507 PWs)   bands (ev):

   -20.8196 -20.5590 -20.5161 -20.4137 -20.3899 -20.3243 -20.2608 -20.2030
   -20.1703 -20.0546 -20.0273 -19.8346  -8.3192  -8.2241  -8.1394  -8.1045
    -8.0021  -7.9958  -7.6563  -7.5397  -7.3792  -7.2952  -7.2451  -7.1567
    -7.1197  -6.4838  -6.3687  -6.1219  -6.0180  -5.6256  -5.5122  -5.3868
    -5.2279  -4.8131  -4.7244  -4.2265  -3.2834  -3.2694  -3.2275  -3.1486
    -3.1157  -3.0944  -3.0005  -2.9827  -2.9588  -2.9485  -2.8634  -2.8521

          k = 0.2996-0.1730-1.2442 ( 33484 PWs)   bands (ev):

   -20.7160 -20.6890 -20.5256 -20.4560 -20.3879 -20.3471 -20.2147 -20.1914
   -20.0962 -20.0828 -19.9391 -19.9271  -8.3001  -8.2686  -8.1545  -8.1216
    -7.9758  -7.9732  -7.6445  -7.5912  -7.3566  -7.3189  -7.1637  -7.1273
    -6.8843  -6.8385  -6.4293  -6.2170  -5.9342  -5.7402  -5.4092  -5.1647
    -5.0719  -4.9800  -4.5911  -4.4190  -3.2927  -3.2552  -3.2465  -3.1756
    -3.1160  -3.0750  -3.0503  -2.9926  -2.9821  -2.9485  -2.8356  -2.8207

          k = 0.0000 0.0000 0.9332 ( 33420 PWs)   bands (ev):

   -20.6405 -20.6405 -20.5790 -20.5451 -20.4064 -20.4064 -20.1480 -20.1480
   -20.0427 -20.0275 -19.9968 -19.9968  -8.2588  -8.2588  -8.1404  -8.0512
    -8.0512  -8.0287  -7.6017  -7.5154  -7.5154  -7.1416  -7.1416  -7.1104
    -6.7581  -6.7492  -6.7492  -6.1653  -5.9059  -5.9059  -5.3218  -5.1451
    -5.1451  -4.7264  -4.7264  -4.5606  -3.3255  -3.3255  -3.2198  -3.1769
    -3.1100  -3.1100  -3.0666  -3.0083  -3.0083  -2.9129  -2.9129  -2.7698

          k = 0.4494 0.2595 0.0000 ( 33507 PWs)   bands (ev):

   -20.7405 -20.6078 -20.6056 -20.4576 -20.3454 -20.3400 -20.2295 -20.2225
   -20.0969 -20.0250 -19.9989 -19.9031  -8.2966  -8.2576  -8.2021  -8.0666
    -8.0148  -7.9555  -7.6606  -7.5495  -7.4354  -7.2295  -7.1880  -7.1441
    -6.9697  -6.6403  -6.5708  -6.1718  -5.9591  -5.7314  -5.3272  -5.2909
    -5.1113  -4.8199  -4.6885  -4.3948  -3.2797  -3.2726  -3.2381  -3.1793
    -3.1316  -3.0843  -3.0228  -3.0040  -2.9647  -2.9290  -2.8787  -2.8053

          k = 0.2996 0.1730 0.3111 ( 33499 PWs)   bands (ev):

   -20.7639 -20.5706 -20.5031 -20.4851 -20.4159 -20.3707 -20.2199 -20.1929
   -20.1404 -20.0402 -20.0001 -19.8748  -8.2963  -8.2439  -8.1690  -8.0626
    -8.0544  -7.9301  -7.6259  -7.5193  -7.3599  -7.2964  -7.2593  -7.1772
    -6.9501  -6.5009  -6.3488  -6.2635  -6.0477  -5.7596  -5.4964  -5.3210
    -5.1613  -4.8119  -4.6713  -4.3024  -3.3898  -3.3198  -3.2582  -3.2088
    -3.1305  -3.0955  -3.0326  -3.0071  -2.9381  -2.9007  -2.8525  -2.8342

          k = 0.4494-0.2595-0.9332 ( 33514 PWs)   bands (ev):

   -20.6621 -20.6590 -20.5496 -20.5146 -20.4072 -20.3451 -20.2513 -20.1830
   -20.0712 -20.0256 -19.9867 -19.9219  -8.3222  -8.2344  -8.1979  -8.0670
    -8.0258  -7.9115  -7.6605  -7.4764  -7.3751  -7.3256  -7.2053  -7.1832
    -6.7328  -6.6941  -6.4154  -6.2699  -6.1040  -5.8363  -5.4606  -5.2076
    -4.9156  -4.9071  -4.7156  -4.3604  -3.3935  -3.3341  -3.3037  -3.2080
    -3.1785  -3.1077  -2.9923  -2.9724  -2.9507  -2.9129  -2.8537  -2.8045

          k = 0.2996-0.3460-0.6221 ( 33488 PWs)   bands (ev):

   -20.6283 -20.6223 -20.5413 -20.5385 -20.4309 -20.4294 -20.1838 -20.1817
   -20.0599 -20.0556 -19.9574 -19.9527  -8.3352  -8.1594  -8.1316  -8.1157
    -8.0847  -7.9166  -7.5990  -7.4823  -7.3620  -7.3174  -7.1900  -7.1850
    -6.6997  -6.5806  -6.4442  -6.3204  -6.0407  -6.0050  -5.3905  -5.3224
    -4.9266  -4.8824  -4.7379  -4.3461  -3.4879  -3.3460  -3.3028  -3.2409
    -3.1982  -3.0845  -3.0284  -2.9949  -2.9792  -2.8719  -2.8577  -2.7898

          k = 0.0000 0.0000-1.8663 ( 33534 PWs)   bands (ev):

   -20.6013 -20.5993 -20.5159 -20.5159 -20.5023 -20.5023 -20.1210 -20.1210
   -20.1068 -20.1068 -19.9451 -19.9438  -8.3764  -8.1310  -8.1310  -8.1061
    -8.1061  -7.8876  -7.6421  -7.4753  -7.2800  -7.2800  -7.2485  -7.2485
    -6.5567  -6.3660  -6.3488  -6.3488  -6.3121  -6.3121  -5.1994  -5.1994
    -4.9498  -4.9498  -4.7725  -4.2997  -3.5153  -3.3461  -3.3461  -3.2698
    -3.2698  -3.0401  -3.0211  -2.9463  -2.9463  -2.8827  -2.8827  -2.7686

          k = 0.2996-0.3460 0.3111 ( 33494 PWs)   bands (ev):

   -20.7260 -20.6042 -20.5211 -20.4983 -20.4363 -20.3793 -20.2087 -20.1333
   -20.1089 -20.0532 -19.9954 -19.9127  -8.2923  -8.2276  -8.1548  -8.1022
    -8.0207  -7.9767  -7.6342  -7.5173  -7.4124  -7.2526  -7.1622  -7.1541
    -6.9231  -6.6092  -6.5355  -6.1981  -5.9733  -5.7340  -5.5808  -5.1930
    -5.0505  -4.8349  -4.7247  -4.3868  -3.3795  -3.2886  -3.2571  -3.1753
    -3.1370  -3.0987  -3.0367  -3.0342  -2.9797  -2.8995  -2.8759  -2.7968

     highest occupied level (ev):    -2.7686

!    total energy              =    -413.74416774 Ry
     estimated scf accuracy    <          3.9E-09 Ry

     The total energy is the sum of the following terms:
     one-electron contribution =    -305.45039978 Ry
     hartree contribution      =     185.33684087 Ry
     xc contribution           =    -100.20969505 Ry
     ewald contribution        =    -193.42091378 Ry

     convergence has been achieved in  13 iterations

     Forces acting on atoms (cartesian axes, Ry/au):

     atom    1 type  2   force =    -0.05416418    0.11758395    0.06739465
     atom    2 type  2   force =     0.05416418   -0.11758395   -0.06739465
     atom    3 type  2   force =    -0.07474859   -0.10569953    0.06739465
     atom    4 type  2   force =     0.07474859    0.10569953   -0.06739465
     atom    5 type  2   force =     0.12891278   -0.01188441    0.06739465
     atom    6 type  2   force =    -0.12891278    0.01188441   -0.06739465
     atom    7 type  2   force =    -0.07482843    0.05360163   -0.04927789
     atom    8 type  2   force =     0.07482843   -0.05360163    0.04927789
     atom    9 type  2   force =    -0.00900615   -0.09160414   -0.04927789
     atom   10 type  2   force =     0.00900615    0.09160414    0.04927789
     atom   11 type  2   force =     0.08383459    0.03800251   -0.04927789
     atom   12 type  2   force =    -0.08383459   -0.03800251    0.04927789
     atom   13 type  1   force =     0.02399077   -0.06967977   -0.03233502
     atom   14 type  1   force =    -0.02399077    0.06967977    0.03233502
     atom   15 type  1   force =     0.04834907    0.05561651   -0.03233502
     atom   16 type  1   force =    -0.04834907   -0.05561651    0.03233502
     atom   17 type  1   force =    -0.07233984    0.01406327   -0.03233502
     atom   18 type  1   force =     0.07233984   -0.01406327    0.03233502
     atom   19 type  1   force =     0.02681994   -0.05405529   -0.04415074
     atom   20 type  1   force =    -0.02681994    0.05405529    0.04415074
     atom   21 type  1   force =     0.03340328    0.05025439   -0.04415074
     atom   22 type  1   force =    -0.03340328   -0.05025439    0.04415074
     atom   23 type  1   force =    -0.06022322    0.00380089   -0.04415074
     atom   24 type  1   force =     0.06022322   -0.00380089    0.04415074
     atom   25 type  1   force =    -0.02860314   -0.05540414    0.01505299
     atom   26 type  1   force =     0.02860314    0.05540414   -0.01505299
     atom   27 type  1   force =     0.06228297    0.00293103    0.01505299
     atom   28 type  1   force =    -0.06228297   -0.00293103   -0.01505299
     atom   29 type  1   force =    -0.03367983    0.05247312    0.01505299
     atom   30 type  1   force =     0.03367983   -0.05247312   -0.01505299
     atom   31 type  1   force =    -0.06344129    0.02125006    0.04347646
     atom   32 type  1   force =     0.06344129   -0.02125006   -0.04347646
     atom   33 type  1   force =     0.01331755   -0.06556680    0.04347646
     atom   34 type  1   force =    -0.01331755    0.06556680   -0.04347646
     atom   35 type  1   force =     0.05012374    0.04431674    0.04347646
     atom   36 type  1   force =    -0.05012374   -0.04431674   -0.04347646

     Total force =     0.573151     Total SCF correction =     0.000151


     Computing stress (Cartesian axis) and pressure

          total   stress  (Ry/bohr**3)                   (kbar)     P=      -94.77
  -0.00072374  -0.00000000  -0.00000000         -106.47       -0.00       -0.00
   0.00000000  -0.00072374  -0.00000000            0.00     -106.47       -0.00
  -0.00000000  -0.00000000  -0.00048530           -0.00       -0.00      -71.39


     BFGS Geometry Optimization
     Energy error            =      0.0E+00 Ry
     Gradient error          =      1.3E-01 Ry/Bohr

     number of scf cycles    =   1
     number of bfgs steps    =   0

     energy             new  =    -413.7441677397 Ry

     new trust radius        =       0.1459513000 bohr
     new conv_thr            =       0.0000001000 Ry


ATOMIC_POSITIONS (crystal)
O                0.2736992781        0.0347846641        0.8589367397
O                0.7263007219        0.9652153469        0.1410632303
O                0.8589367397        0.2736992781        0.0347846641
O                0.1410632303        0.7263007219        0.9652153469
O                0.0347846641        0.8589367397        0.2736992781
O                0.9652153469        0.1410632303        0.7263007219
O                0.4698601736        0.7484189204        0.3297143183
O                0.5301398264        0.2515810796        0.6702856517
O                0.3297143183        0.4698601736        0.7484189204
O                0.6702856517        0.5301398264        0.2515810796
O                0.7484189204        0.3297143183        0.4698601736
O                0.2515810796        0.6702856517        0.5301398264
H                0.1648859799        0.0632265214        0.8080090759
H                0.8351140061        0.9367734706        0.1919909241
H                0.8080090759        0.1648859799        0.0632265214
H                0.1919909241        0.8351140061        0.9367734706
H                0.0632265214        0.8080090759        0.1648859799
H                0.9367734706        0.1919909241        0.8351140061
H                0.4116841288        0.1989726231        0.9935858831
H                0.5883158712        0.8010273919        0.0064140959
H                0.9935858831        0.4116841288        0.1989726231
H                0.0064140959        0.5883158712        0.8010273919
H                0.1989726231        0.9935858831        0.4116841288
H                0.8010273919        0.0064140959        0.5883158712
H                0.7203549259        0.3997200226        0.3985926986
H                0.2796450741        0.6002799474        0.6014073314
H                0.3985926986        0.7203549259        0.3997200226
H                0.6014073314        0.2796450741        0.6002799474
H                0.3997200226        0.3985926986        0.7203549259
H                0.6002799474        0.6014073314        0.2796450741
H                0.7415694543        0.2074908420        0.3655327500
H                0.2584305457        0.7925091430        0.6344672500
H                0.3655327500        0.7415694543        0.2074908420
H                0.6344672500        0.2584305457        0.7925091430
H                0.2074908420        0.3655327500        0.7415694543
H                0.7925091430        0.6344672500        0.2584305457



     Writing config-only to output data dir ./iceII/iceII.save/ :
     XML data file
     NEW-OLD atomic charge density approx. for the potential

     negative rho (up, down):  1.054E-06 0.000E+00

     total cpu time spent up to now is       15.7 secs

     per-process dynamical memory:    27.7 Mb

     Self-consistent Calculation

     iteration #  1     ecut=    90.00 Ry     beta= 0.70
     Davidson diagonalization with overlap
     ethr =  1.00E-06,  avg # of iterations = 10.0

     negative rho (up, down):  1.303E-06 0.000E+00

     total cpu time spent up to now is       18.4 secs

     total energy              =    -413.86421846 Ry
     estimated scf accuracy    <       0.11475456 Ry

     iteration #  2     ecut=    90.00 Ry     beta= 0.70
     Davidson diagonalization with overlap
     ethr =  1.20E-04,  avg # of iterations =  3.0

     negative rho (up, down):  1.184E-06 0.000E+00

     total cpu time spent up to now is       19.4 secs

     total energy              =    -413.89629121 Ry
     estimated scf accuracy    <       0.04741215 Ry

     iteration #  3     ecut=    90.00 Ry     beta= 0.70
     Davidson diagonalization with overlap
     ethr =  4.94E-05,  avg # of iterations =  2.0

     negative rho (up, down):  1.235E-06 0.000E+00

     total cpu time spent up to now is       20.2 secs

     total energy              =    -413.90330729 Ry
     estimated scf accuracy    <       0.00136473 Ry

     iteration #  4     ecut=    90.00 Ry     beta= 0.70
     Davidson diagonalization with overlap
     ethr =  1.42E-06,  avg # of iterations =  5.0

     negative rho (up, down):  1.371E-06 0.000E+00

     total cpu time spent up to now is       21.5 secs

     total energy              =    -413.90425611 Ry
     estimated scf accuracy    <       0.00190394 Ry

     iteration #  5     ecut=    90.00 Ry     beta= 0.70
     Davidson diagonalization with overlap
     ethr =  1.42E-06,  avg # of iterations =  2.1

     negative rho (up, down):  1.486E-06 0.000E+00

     total cpu time spent up to now is       22.4 secs

     total energy              =    -413.90437805 Ry
     estimated scf accuracy    <       0.00018937 Ry

     iteration #  6     ecut=    90.00 Ry     beta= 0.70
     Davidson diagonalization with overlap
     ethr =  1.97E-07,  avg # of iterations =  4.0

     negative rho (up, down):  1.462E-06 0.000E+00

     total cpu time spent up to now is       23.5 secs

     total energy              =    -413.90446750 Ry
     estimated scf accuracy    <       0.00017213 Ry

     iteration #  7     ecut=    90.00 Ry     beta= 0.70
     Davidson diagonalization with overlap
     ethr =  1.79E-07,  avg # of iterations =  2.0

     negative rho (up, down):  1.444E-06 0.000E+00

     total cpu time spent up to now is       24.4 secs

     total energy              =    -413.90449492 Ry
     estimated scf accuracy    <       0.00000452 Ry

     iteration #  8     ecut=    90.00 Ry     beta= 0.70
     Davidson diagonalization with overlap
     ethr =  4.71E-09,  avg # of iterations =  5.0

     negative rho (up, down):  1.443E-06 0.000E+00

     total cpu time spent up to now is       25.6 secs

     total energy              =    -413.90449834 Ry
     estimated scf accuracy    <       0.00000055 Ry

     iteration #  9     ecut=    90.00 Ry     beta= 0.70
     Davidson diagonalization with overlap
     ethr =  5.71E-10,  avg # of iterations =  2.0

     negative rho (up, down):  1.443E-06 0.000E+00

     total cpu time spent up to now is       26.4 secs

     total energy              =    -413.90449827 Ry
     estimated scf accuracy    <       0.00000031 Ry

     iteration # 10     ecut=    90.00 Ry     beta= 0.70
     Davidson diagonalization with overlap
     ethr =  3.28E-10,  avg # of iterations =  2.0

     negative rho (up, down):  1.443E-06 0.000E+00

     total cpu time spent up to now is       27.3 secs

     End of self-consistent calculation

          k = 0.0000 0.0000 0.0000 ( 33553 PWs)   bands (ev):

   -21.4957 -21.1983 -21.1983 -21.0138 -21.0138 -20.9985 -20.9985 -20.9900
   -20.9900 -20.7712 -20.7712 -20.5731  -9.0712  -8.9206  -8.8770  -8.8770
    -8.8467  -8.8467  -8.4046  -8.4046  -8.3154  -8.3119  -8.3119  -8.2003
    -7.1170  -6.2417  -6.2417  -5.6960  -5.6960  -5.6681  -5.6681  -5.4293
    -5.3881  -4.7844  -4.7844  -4.2191  -3.4332  -3.4332  -3.4138  -3.2480
    -3.2480  -3.2216  -3.1127  -3.0817  -3.0817  -3.0757  -3.0121  -3.0121

          k =-0.1498-0.0865 0.3111 ( 33497 PWs)   bands (ev):

   -21.4447 -21.2202 -21.1962 -21.1091 -21.0956 -21.0604 -20.9483 -20.9145
   -20.8869 -20.7784 -20.7513 -20.6103  -9.0399  -8.9385  -8.9016  -8.8972
    -8.8391  -8.7988  -8.4102  -8.3889  -8.3281  -8.2804  -8.2699  -8.2354
    -6.9693  -6.3632  -6.2759  -5.9873  -5.7875  -5.6049  -5.5204  -5.3380
    -5.2782  -4.7837  -4.7192  -4.3239  -3.5124  -3.4579  -3.4078  -3.2785
    -3.2706  -3.2462  -3.1957  -3.1203  -3.0675  -3.0295  -3.0074  -2.9670

          k = 0.2996 0.1730-0.6221 ( 33488 PWs)   bands (ev):

   -21.3335 -21.2910 -21.2209 -21.1595 -21.1234 -21.0970 -20.9185 -20.8827
   -20.8101 -20.7731 -20.7289 -20.6807  -8.9877  -8.9697  -8.9259  -8.8899
    -8.8364  -8.7868  -8.3975  -8.3725  -8.3182  -8.3066  -8.2410  -8.2317
    -6.6917  -6.5634  -6.3295  -6.1711  -5.7976  -5.7054  -5.4526  -5.2994
    -4.9805  -4.8498  -4.6667  -4.4710  -3.5819  -3.4692  -3.3951  -3.3391
    -3.3019  -3.2854  -3.1840  -3.1343  -3.1323  -2.9953  -2.9903  -2.9289

          k =-0.1498 0.0865 0.6221 ( 33454 PWs)   bands (ev):

   -21.3460 -21.2505 -21.2435 -21.1597 -21.1334 -21.0996 -20.9096 -20.8657
   -20.8313 -20.7597 -20.7461 -20.6740  -8.9903  -8.9586  -8.9448  -8.8681
    -8.8483  -8.7855  -8.3935  -8.3773  -8.3383  -8.2732  -8.2512  -8.2345
    -6.7196  -6.4670  -6.4412  -6.0557  -5.8863  -5.7476  -5.3921  -5.2373
    -5.0925  -4.7478  -4.7207  -4.4732  -3.5662  -3.4987  -3.3829  -3.3414
    -3.3090  -3.2418  -3.2214  -3.1422  -3.1110  -3.0035  -2.9926  -2.9243

          k = 0.2996 0.3460-0.3111 ( 33494 PWs)   bands (ev):

   -21.3790 -21.2839 -21.2099 -21.1594 -21.1090 -21.0751 -20.9146 -20.8786
   -20.8361 -20.7742 -20.7375 -20.6580  -9.0105  -8.9812  -8.9128  -8.8800
    -8.8402  -8.7782  -8.4467  -8.4241  -8.3593  -8.2588  -8.2324  -8.2182
    -6.7488  -6.5005  -6.2920  -6.0904  -6.0291  -5.6388  -5.3353  -5.2470
    -5.0560  -4.8473  -4.6954  -4.4447  -3.5138  -3.4578  -3.4028  -3.3462
    -3.2633  -3.2229  -3.1837  -3.1603  -3.0943  -3.0417  -2.9966  -2.9124

          k = 0.1498 0.2595 0.0000 ( 33507 PWs)   bands (ev):

   -21.4591 -21.2460 -21.2091 -21.0910 -21.0647 -21.0062 -20.9817 -20.9220
   -20.9026 -20.7775 -20.7504 -20.6018  -9.0539  -8.9502  -8.9019  -8.8961
    -8.8168  -8.8039  -8.4647  -8.4308  -8.3225  -8.3021  -8.2626  -8.2016
    -6.9798  -6.3267  -6.2338  -6.0179  -5.9085  -5.5725  -5.4412  -5.2945
    -5.2450  -4.8274  -4.7558  -4.2927  -3.4355  -3.4242  -3.4192  -3.3039
    -3.2500  -3.2232  -3.1291  -3.1145  -3.1025  -3.0656  -2.9809  -2.9707

          k = 0.2996-0.1730-1.2442 ( 33484 PWs)   bands (ev):

   -21.3671 -21.3552 -21.2187 -21.1231 -21.0741 -21.0151 -20.9586 -20.9045
   -20.8528 -20.7884 -20.6909 -20.6634  -9.0190  -8.9956  -8.9111  -8.9021
    -8.7981  -8.7800  -8.5034  -8.4542  -8.3317  -8.2965  -8.2221  -8.2111
    -6.6591  -6.6301  -6.2499  -6.1771  -5.8568  -5.6901  -5.3480  -5.1852
    -5.0428  -4.9548  -4.6209  -4.4500  -3.4465  -3.4159  -3.4149  -3.3455
    -3.2565  -3.1961  -3.1746  -3.1396  -3.1002  -3.0667  -2.9560  -2.9444

          k = 0.0000 0.0000 0.9332 ( 33420 PWs)   bands (ev):

   -21.3039 -21.3039 -21.2863 -21.1745 -21.0935 -21.0935 -20.8714 -20.8714
   -20.8291 -20.7358 -20.7358 -20.7164  -8.9879  -8.9879  -8.9468  -8.8353
    -8.8353  -8.8146  -8.4618  -8.4050  -8.4050  -8.2245  -8.2245  -8.2082
    -6.5423  -6.5423  -6.5350  -6.1120  -5.8649  -5.8649  -5.1618  -5.1264
    -5.1264  -4.7370  -4.7370  -4.5944  -3.4729  -3.4729  -3.3893  -3.3517
    -3.2424  -3.2424  -3.2055  -3.1369  -3.1369  -3.0241  -3.0241  -2.8910

          k = 0.4494 0.2595 0.0000 ( 33507 PWs)   bands (ev):

   -21.3918 -21.2876 -21.2785 -21.1107 -21.0571 -21.0240 -20.9486 -20.9255
   -20.8573 -20.7535 -20.7258 -20.6516  -9.0236  -8.9773  -8.9490  -8.8640
    -8.8241  -8.7684  -8.5123  -8.4276  -8.3723  -8.2560  -8.2390  -8.2112
    -6.7477  -6.4467  -6.3827  -6.1370  -5.8743  -5.6638  -5.3118  -5.2727
    -5.0752  -4.8122  -4.7097  -4.4316  -3.4368  -3.4264  -3.4104  -3.3488
    -3.2663  -3.2089  -3.1636  -3.1332  -3.0900  -3.0483  -2.9952  -2.9289

          k = 0.2996 0.1730 0.3111 ( 33499 PWs)   bands (ev):

   -21.4113 -21.2549 -21.1950 -21.1524 -21.0928 -21.0634 -20.9348 -20.9196
   -20.8396 -20.7889 -20.7314 -20.6314  -9.0261  -8.9587  -8.9209  -8.8843
    -8.8463  -8.7617  -8.4602  -8.3753  -8.3240  -8.3077  -8.2470  -8.2356
    -6.8474  -6.3866  -6.2592  -6.1222  -5.9254  -5.6346  -5.4445  -5.2847
    -5.1177  -4.8290  -4.7004  -4.3567  -3.5291  -3.4608  -3.4199  -3.3310
    -3.2832  -3.2313  -3.1783  -3.1327  -3.0627  -3.0354  -2.9739  -2.9601

          k = 0.4494-0.2595-0.9332 ( 33514 PWs)   bands (ev):

   -21.3340 -21.3187 -21.2338 -21.1659 -21.0936 -21.0513 -20.9490 -20.9088
   -20.7906 -20.7830 -20.7271 -20.6594  -9.0000  -8.9832  -8.9427  -8.8772
    -8.8401  -8.7371  -8.4904  -8.3859  -8.3250  -8.3120  -8.2403  -8.2326
    -6.6229  -6.5038  -6.2724  -6.2414  -5.9755  -5.6760  -5.4424  -5.2146
    -4.8994  -4.8908  -4.7276  -4.4017  -3.5370  -3.4717  -3.4408  -3.3414
    -3.3013  -3.2654  -3.1374  -3.1041  -3.0826  -3.0387  -2.9792  -2.9329

          k = 0.2996-0.3460-0.6221 ( 33488 PWs)   bands (ev):

   -21.3183 -21.2644 -21.2305 -21.1947 -21.1236 -21.1113 -20.9092 -20.8896
   -20.7898 -20.7750 -20.7416 -20.6710  -9.0033  -8.9445  -8.9247  -8.8899
    -8.8728  -8.7429  -8.4134  -8.3841  -8.3073  -8.2999  -8.2538  -8.2489
    -6.6085  -6.4752  -6.3232  -6.2557  -5.8907  -5.8483  -5.3247  -5.2556
    -4.9143  -4.8707  -4.7534  -4.4050  -3.6066  -3.4790  -3.4433  -3.3617
    -3.3370  -3.2068  -3.1859  -3.1350  -3.1151  -2.9984  -2.9876  -2.9158

          k = 0.0000 0.0000-1.8663 ( 33534 PWs)   bands (ev):

   -21.3065 -21.2181 -21.2181 -21.2148 -21.1582 -21.1582 -20.8777 -20.8777
   -20.7943 -20.7943 -20.7388 -20.6619  -9.0115  -8.9244  -8.9244  -8.8920
    -8.8920  -8.7150  -8.4282  -8.3943  -8.2885  -8.2885  -8.2738  -8.2738
    -6.5448  -6.4046  -6.1902  -6.1902  -6.1006  -6.1006  -5.1766  -5.1766
    -4.9319  -4.9319  -4.7638  -4.3597  -3.6308  -3.4744  -3.4744  -3.3843
    -3.3843  -3.2047  -3.1550  -3.0833  -3.0833  -3.0180  -3.0180  -2.8976

          k = 0.2996-0.3460 0.3111 ( 33494 PWs)   bands (ev):

   -21.3799 -21.2766 -21.2232 -21.1564 -21.1023 -21.0752 -20.9226 -20.8785
   -20.8193 -20.7941 -20.7272 -20.6601  -9.0164  -8.9643  -8.9221  -8.8949
    -8.8179  -8.7870  -8.4572  -8.4157  -8.3558  -8.2568  -8.2369  -8.2174
    -6.7557  -6.4326  -6.3868  -6.1185  -5.9101  -5.6867  -5.4390  -5.1448
    -5.0276  -4.8592  -4.7311  -4.4333  -3.5167  -3.4482  -3.4132  -3.3356
    -3.2598  -3.2306  -3.1779  -3.1732  -3.1060  -3.0163  -2.9999  -2.9183

     highest occupied level (ev):    -2.8910

!    total energy              =    -413.90449830 Ry
     estimated scf accuracy    <       0.00000002 Ry

     The total energy is the sum of the following terms:
     one-electron contribution =    -318.29049930 Ry
     hartree contribution      =     191.21045171 Ry
     xc contribution           =    -101.60016065 Ry
     ewald contribution        =    -185.22429006 Ry

     convergence has been achieved in  10 iterations

     Forces acting on atoms (cartesian axes, Ry/au):

     atom    1 type  2   force =    -0.00103708   -0.01290679   -0.00764086
     atom    2 type  2   force =     0.00103708    0.01290679    0.00764086
     atom    3 type  2   force =     0.01169615    0.00555525   -0.00764086
     atom    4 type  2   force =    -0.01169615   -0.00555525    0.00764086
     atom    5 type  2   force =    -0.01065907    0.00735153   -0.00764086
     atom    6 type  2   force =     0.01065907   -0.00735153    0.00764086
     atom    7 type  2   force =     0.01024298   -0.01330143    0.00749944
     atom    8 type  2   force =    -0.01024298    0.01330143   -0.00749944
     atom    9 type  2   force =     0.00639788    0.01552140    0.00749944
     atom   10 type  2   force =    -0.00639788   -0.01552140   -0.00749944
     atom   11 type  2   force =    -0.01664087   -0.00221997    0.00749944
     atom   12 type  2   force =     0.01664087    0.00221997   -0.00749944
     atom   13 type  1   force =    -0.01721439    0.02300245   -0.03959851
     atom   14 type  1   force =     0.01721439   -0.02300245    0.03959851
     atom   15 type  1   force =    -0.01131351   -0.02640933   -0.03959851
     atom   16 type  1   force =     0.01131351    0.02640933    0.03959851
     atom   17 type  1   force =     0.02852790    0.00340688   -0.03959851
     atom   18 type  1   force =    -0.02852790   -0.00340688    0.03959851
     atom   19 type  1   force =     0.01830977   -0.01396540    0.04182778
     atom   20 type  1   force =    -0.01830977    0.01396540   -0.04182778
     atom   21 type  1   force =     0.00293950    0.02283943    0.04182778
     atom   22 type  1   force =    -0.00293950   -0.02283943   -0.04182778
     atom   23 type  1   force =    -0.02124928   -0.00887403    0.04182778
     atom   24 type  1   force =     0.02124928    0.00887403   -0.04182778
     atom   25 type  1   force =     0.00758624    0.01662601    0.00159697
     atom   26 type  1   force =    -0.00758624   -0.01662601   -0.00159697
     atom   27 type  1   force =    -0.01819167   -0.00174313    0.00159697
     atom   28 type  1   force =     0.01819167    0.00174313   -0.00159697
     atom   29 type  1   force =     0.01060543   -0.01488288    0.00159697
     atom   30 type  1   force =    -0.01060543    0.01488288   -0.00159697
     atom   31 type  1   force =     0.00441649   -0.01130634   -0.00511880
     atom   32 type  1   force =    -0.00441649    0.01130634    0.00511880
     atom   33 type  1   force =     0.00758333    0.00947796   -0.00511880
     atom   34 type  1   force =    -0.00758333   -0.00947796    0.00511880
     atom   35 type  1   force =    -0.01199982    0.00182838   -0.00511880
     atom   36 type  1   force =     0.01199982   -0.00182838    0.00511880

     Total force =     0.185702     Total SCF correction =     0.000076


     Computing stress (Cartesian axis) and pressure

          total   stress  (Ry/bohr**3)                   (kbar)     P=        9.22
   0.00000592   0.00000000  -0.00000000            0.87        0.00       -0.00
  -0.00000000   0.00000592   0.00000000           -0.00        0.87        0.00
   0.00000000   0.00000000   0.00017627            0.00        0.00       25.93

     Energy error            =      1.6E-01 Ry
     Gradient error          =      4.2E-02 Ry/Bohr

     number of scf cycles    =   2
     number of bfgs steps    =   1

     energy             old  =    -413.7441677397 Ry
     energy             new  =    -413.9044982979 Ry

     CASE: energy            _new < energy            _old

     new trust radius        =       0.0426745342 bohr
     new conv_thr            =       0.0000001000 Ry


ATOMIC_POSITIONS (crystal)
O                0.2734202818        0.0344681061        0.8590244397
O                0.7265797182        0.9655319049        0.1409755303
O                0.8590244397        0.2734202818        0.0344681061
O                0.1409755303        0.7265797182        0.9655319049
O                0.0344681061        0.8590244397        0.2734202818
O                0.9655319049        0.1409755303        0.7265797182
O                0.4704552184        0.7483162664        0.3300063088
O                0.5295447816        0.2516837336        0.6699936612
O                0.3300063088        0.4704552184        0.7483162664
O                0.6699936612        0.5295447816        0.2516837336
O                0.7483162664        0.3300063088        0.4704552184
O                0.2516837336        0.6699936612        0.5295447816
H                0.1609700919        0.0608951931        0.8051563482
H                0.8390298941        0.9391047989        0.1948436518
H                0.8051563482        0.1609700919        0.0608951931
H                0.1948436518        0.8390298941        0.9391047989
H                0.0608951931        0.8051563482        0.1609700919
H                0.9391047989        0.1948436518        0.8390298941
H                0.4155181036        0.2010053183        0.9960042094
H                0.5844818964        0.7989946967        0.0039957696
H                0.9960042094        0.4155181036        0.2010053183
H                0.0039957696        0.5844818964        0.7989946967
H                0.2010053183        0.9960042094        0.4155181036
H                0.7989946967        0.0039957696        0.5844818964
H                0.7204943570        0.4004115865        0.3983617326
H                0.2795056430        0.5995883835        0.6016382974
H                0.3983617326        0.7204943570        0.4004115865
H                0.6016382974        0.2795056430        0.5995883835
H                0.4004115865        0.3983617326        0.7204943570
H                0.5995883835        0.6016382974        0.2795056430
H                0.7416200358        0.2069820905        0.3656223410
H                0.2583799642        0.7930178945        0.6343776590
H                0.3656223410        0.7416200358        0.2069820905
H                0.6343776590        0.2583799642        0.7930178945
H                0.2069820905        0.3656223410        0.7416200358
H                0.7930178945        0.6343776590        0.2583799642



     Writing config-only to output data dir ./iceII/iceII.save/ :
     XML data file
     NEW-OLD atomic charge density approx. for the potential

     negative rho (up, down):  1.358E-06 0.000E+00

     total cpu time spent up to now is       28.5 secs

     per-process dynamical memory:    28.6 Mb

     Self-consistent Calculation

     iteration #  1     ecut=    90.00 Ry     beta= 0.70
     Davidson diagonalization with overlap
     ethr =  1.00E-06,  avg # of iterations =  4.2

     negative rho (up, down):  1.203E-06 0.000E+00

     total cpu time spent up to now is       30.0 secs

     total energy              =    -413.92301460 Ry
     estimated scf accuracy    <       0.00264873 Ry

     iteration #  2     ecut=    90.00 Ry     beta= 0.70
     Davidson diagonalization with overlap
     ethr =  2.76E-06,  avg # of iterations =  3.0

     negative rho (up, down):  1.262E-06 0.000E+00

     total cpu time spent up to now is       31.0 secs

     total energy              =    -413.92373038 Ry
     estimated scf accuracy    <       0.00102172 Ry

     iteration #  3     ecut=    90.00 Ry     beta= 0.70
     Davidson diagonalization with overlap
     ethr =  1.06E-06,  avg # of iterations =  2.0

     negative rho (up, down):  1.309E-06 0.000E+00

     total cpu time spent up to now is       31.8 secs

     total energy              =    -413.92388701 Ry
     estimated scf accuracy    <       0.00003275 Ry

     iteration #  4     ecut=    90.00 Ry     beta= 0.70
     Davidson diagonalization with overlap
     ethr =  3.41E-08,  avg # of iterations =  4.1

     negative rho (up, down):  1.296E-06 0.000E+00

     total cpu time spent up to now is       33.0 secs

     total energy              =    -413.92390708 Ry
     estimated scf accuracy    <       0.00004194 Ry

     iteration #  5     ecut=    90.00 Ry     beta= 0.70
     Davidson diagonalization with overlap
     ethr =  3.41E-08,  avg # of iterations =  2.0

     negative rho (up, down):  1.285E-06 0.000E+00

     total cpu time spent up to now is       33.9 secs

     total energy              =    -413.92390837 Ry
     estimated scf accuracy    <       0.00000574 Ry

     iteration #  6     ecut=    90.00 Ry     beta= 0.70
     Davidson diagonalization with overlap
     ethr =  5.98E-09,  avg # of iterations =  3.1

     negative rho (up, down):  1.289E-06 0.000E+00

     total cpu time spent up to now is       35.0 secs

     total energy              =    -413.92391124 Ry
     estimated scf accuracy    <       0.00000314 Ry

     iteration #  7     ecut=    90.00 Ry     beta= 0.70
     Davidson diagonalization with overlap
     ethr =  3.27E-09,  avg # of iterations =  2.0

     negative rho (up, down):  1.291E-06 0.000E+00

     total cpu time spent up to now is       35.8 secs

     total energy              =    -413.92391147 Ry
     estimated scf accuracy    <       0.00000037 Ry

     iteration #  8     ecut=    90.00 Ry     beta= 0.70
     Davidson diagonalization with overlap
     ethr =  3.83E-10,  avg # of iterations =  3.0

     negative rho (up, down):  1.293E-06 0.000E+00

     total cpu time spent up to now is       36.7 secs

     End of self-consistent calculation

          k = 0.0000 0.0000 0.0000 ( 33553 PWs)   bands (ev):

   -21.3585 -21.0396 -21.0396 -20.8694 -20.8694 -20.8592 -20.8592 -20.8480
   -20.8314 -20.6231 -20.6231 -20.4216  -9.0082  -8.8608  -8.8137  -8.8137
    -8.7874  -8.7874  -8.3428  -8.3428  -8.2541  -8.2414  -8.2414  -8.1274
    -7.0904  -6.1537  -6.1537  -5.6950  -5.6950  -5.5878  -5.5878  -5.3385
    -5.3359  -4.7359  -4.7359  -4.1618  -3.4205  -3.4205  -3.3691  -3.2099
    -3.2099  -3.1852  -3.0912  -3.0576  -3.0306  -3.0306  -2.9961  -2.9961

          k =-0.1498-0.0865 0.3111 ( 33497 PWs)   bands (ev):

   -21.3059 -21.0656 -21.0335 -20.9744 -20.9546 -20.9066 -20.8045 -20.7714
   -20.7369 -20.6295 -20.6027 -20.4601  -8.9771  -8.8774  -8.8420  -8.8355
    -8.7790  -8.7376  -8.3469  -8.3261  -8.2583  -8.2139  -8.1981  -8.1648
    -6.9330  -6.2948  -6.1945  -5.9448  -5.7892  -5.5440  -5.4351  -5.2850
    -5.1879  -4.7337  -4.6717  -4.2779  -3.4958  -3.4445  -3.3679  -3.2483
    -3.2396  -3.2054  -3.1767  -3.0795  -3.0458  -2.9895  -2.9798  -2.9397

          k = 0.2996 0.1730-0.6221 ( 33488 PWs)   bands (ev):

   -21.1856 -21.1533 -21.0561 -21.0292 -20.9696 -20.9480 -20.7709 -20.7426
   -20.6613 -20.6213 -20.5717 -20.5396  -8.9250  -8.9079  -8.8652  -8.8309
    -8.7781  -8.7249  -8.3299  -8.3060  -8.2522  -8.2400  -8.1682  -8.1594
    -6.6251  -6.5219  -6.2559  -6.1486  -5.7646  -5.6928  -5.3372  -5.2074
    -4.8911  -4.8035  -4.6245  -4.4509  -3.5642  -3.4564  -3.3727  -3.2948
    -3.2643  -3.2568  -3.1573  -3.1297  -3.0842  -2.9744  -2.9410  -2.8999

          k =-0.1498 0.0865 0.6221 ( 33454 PWs)   bands (ev):

   -21.2025 -21.1025 -21.0942 -21.0131 -20.9907 -20.9477 -20.7667 -20.7139
   -20.6864 -20.6095 -20.5940 -20.5282  -8.9276  -8.8968  -8.8840  -8.8118
    -8.7868  -8.7241  -8.3256  -8.3114  -8.2739  -8.2033  -8.1801  -8.1619
    -6.6585  -6.4145  -6.3892  -6.0127  -5.8606  -5.7163  -5.3007  -5.1277
    -5.0184  -4.7018  -4.6720  -4.4534  -3.5504  -3.4808  -3.3633  -3.2888
    -3.2808  -3.2155  -3.1966  -3.1094  -3.0880  -2.9771  -2.9484  -2.8935

          k = 0.2996 0.3460-0.3111 ( 33494 PWs)   bands (ev):

   -21.2374 -21.1255 -21.0714 -21.0159 -20.9664 -20.9208 -20.7766 -20.7210
   -20.6596 -20.6562 -20.5814 -20.5132  -8.9478  -8.9192  -8.8511  -8.8179
    -8.7824  -8.7183  -8.3873  -8.3622  -8.2921  -8.1879  -8.1612  -8.1445
    -6.7060  -6.4344  -6.2248  -6.0481  -6.0109  -5.5842  -5.2242  -5.1649
    -5.0107  -4.7901  -4.6519  -4.4146  -3.4957  -3.4385  -3.3783  -3.3051
    -3.2274  -3.1910  -3.1523  -3.1327  -3.0794  -3.0176  -2.9497  -2.8812

          k = 0.1498 0.2595 0.0000 ( 33507 PWs)   bands (ev):

   -21.3202 -21.0915 -21.0533 -20.9499 -20.9253 -20.8687 -20.8259 -20.7746
   -20.7432 -20.6320 -20.6052 -20.4520  -8.9908  -8.8889  -8.8397  -8.8338
    -8.7566  -8.7446  -8.4077  -8.3697  -8.2569  -8.2315  -8.1927  -8.1284
    -6.9487  -6.2424  -6.1601  -5.9811  -5.8813  -5.5046  -5.3658  -5.2191
    -5.1940  -4.7801  -4.7133  -4.2402  -3.4190  -3.4092  -3.3836  -3.2650
    -3.2098  -3.1833  -3.1044  -3.0986  -3.0670  -3.0357  -2.9504  -2.9397

          k = 0.2996-0.1730-1.2442 ( 33484 PWs)   bands (ev):

   -21.2256 -21.2077 -21.0645 -20.9844 -20.9270 -20.8838 -20.7912 -20.7594
   -20.6836 -20.6522 -20.5425 -20.5198  -8.9561  -8.9326  -8.8487  -8.8404
    -8.7375  -8.7219  -8.4486  -8.3942  -8.2666  -8.2259  -8.1507  -8.1372
    -6.6069  -6.5906  -6.1839  -6.1333  -5.8135  -5.6107  -5.2544  -5.1291
    -4.9487  -4.9443  -4.5662  -4.4165  -3.4219  -3.3957  -3.3937  -3.3068
    -3.2137  -3.1574  -3.1465  -3.1187  -3.0770  -3.0435  -2.9253  -2.9053

          k = 0.0000 0.0000 0.9332 ( 33420 PWs)   bands (ev):

   -21.1585 -21.1585 -21.1289 -21.0490 -20.9433 -20.9433 -20.7235 -20.7235
   -20.6555 -20.5894 -20.5894 -20.5825  -8.9259  -8.9259  -8.8835  -8.7734
    -8.7734  -8.7603  -8.4039  -8.3405  -8.3405  -8.1525  -8.1525  -8.1326
    -6.4992  -6.4992  -6.4384  -6.1272  -5.8064  -5.8064  -5.0453  -5.0453
    -5.0236  -4.7021  -4.7021  -4.5909  -3.4535  -3.4535  -3.3643  -3.3231
    -3.2019  -3.2019  -3.1696  -3.1195  -3.1195  -2.9878  -2.9878  -2.8604

          k = 0.4494 0.2595 0.0000 ( 33507 PWs)   bands (ev):

   -21.2496 -21.1349 -21.1315 -20.9830 -20.8976 -20.8790 -20.7986 -20.7814
   -20.6880 -20.6108 -20.5818 -20.5056  -8.9604  -8.9149  -8.8860  -8.8025
    -8.7634  -8.7103  -8.4576  -8.3664  -8.3082  -8.1839  -8.1681  -8.1382
    -6.7070  -6.3774  -6.3320  -6.1156  -5.8017  -5.5791  -5.2532  -5.2213
    -4.9780  -4.7727  -4.6685  -4.3923  -3.4088  -3.4076  -3.3915  -3.3090
    -3.2277  -3.1767  -3.1296  -3.1106  -3.0616  -3.0242  -2.9689  -2.8891

          k = 0.2996 0.1730 0.3111 ( 33499 PWs)   bands (ev):

   -21.2705 -21.0989 -21.0394 -21.0200 -20.9461 -20.9168 -20.7824 -20.7688
   -20.7018 -20.6341 -20.5840 -20.4828  -8.9632  -8.8966  -8.8600  -8.8224
    -8.7874  -8.7011  -8.4010  -8.3115  -8.2545  -8.2403  -8.1754  -8.1649
    -6.8077  -6.3166  -6.2139  -6.0377  -5.9162  -5.5792  -5.3496  -5.2101
    -5.0854  -4.7575  -4.6554  -4.3165  -3.5137  -3.4380  -3.3904  -3.2962
    -3.2425  -3.2002  -3.1517  -3.1060  -3.0489  -3.0077  -2.9473  -2.9096

          k = 0.4494-0.2595-0.9332 ( 33514 PWs)   bands (ev):

   -21.1829 -21.1757 -21.0833 -21.0356 -20.9438 -20.8965 -20.8061 -20.7527
   -20.6476 -20.6268 -20.5815 -20.5128  -8.9371  -8.9202  -8.8804  -8.8164
    -8.7808  -8.6771  -8.4335  -8.3225  -8.2577  -8.2431  -8.1690  -8.1607
    -6.5696  -6.4592  -6.2368  -6.1774  -5.9170  -5.5906  -5.3875  -5.1573
    -4.8703  -4.7867  -4.6812  -4.3706  -3.5218  -3.4434  -3.4151  -3.3019
    -3.2650  -3.2317  -3.1146  -3.0803  -3.0690  -3.0181  -2.9488  -2.8779

          k = 0.2996-0.3460-0.6221 ( 33488 PWs)   bands (ev):

   -21.1638 -21.1278 -21.0739 -21.0636 -20.9722 -20.9617 -20.7573 -20.7426
   -20.6463 -20.6335 -20.5814 -20.5251  -8.9404  -8.8821  -8.8627  -8.8308
    -8.8137  -8.6825  -8.3465  -8.3218  -8.2397  -8.2321  -8.1820  -8.1774
    -6.5338  -6.4460  -6.2582  -6.2164  -5.8417  -5.8114  -5.2302  -5.1718
    -4.8731  -4.8321  -4.6662  -4.3865  -3.5900  -3.4572  -3.4182  -3.3239
    -3.2953  -3.1930  -3.1495  -3.1105  -3.0968  -2.9748  -2.9560  -2.8656

          k = 0.0000 0.0000-1.8663 ( 33534 PWs)   bands (ev):

   -21.1405 -21.0971 -21.0712 -21.0712 -21.0100 -21.0100 -20.7110 -20.7110
   -20.6679 -20.6679 -20.5792 -20.5118  -8.9482  -8.8609  -8.8609  -8.8332
    -8.8332  -8.6552  -8.3624  -8.3350  -8.2189  -8.2189  -8.2041  -8.2041
    -6.4621  -6.4039  -6.0927  -6.0927  -6.0816  -6.0816  -5.0759  -5.0759
    -4.9304  -4.9304  -4.6420  -4.3417  -3.6120  -3.4496  -3.4496  -3.3470
    -3.3470  -3.1565  -3.1523  -3.0706  -3.0706  -2.9861  -2.9861  -2.8400

          k = 0.2996-0.3460 0.3111 ( 33494 PWs)   bands (ev):

   -21.2366 -21.1326 -21.0539 -21.0277 -20.9656 -20.9223 -20.7711 -20.7188
   -20.6893 -20.6256 -20.5891 -20.5129  -8.9537  -8.9025  -8.8593  -8.8340
    -8.7612  -8.7255  -8.3986  -8.3528  -8.2888  -8.1866  -8.1648  -8.1441
    -6.7109  -6.3879  -6.3049  -6.0663  -5.9090  -5.6270  -5.3333  -5.0603
    -4.9481  -4.8261  -4.6906  -4.4005  -3.5003  -3.4205  -3.3945  -3.2959
    -3.2249  -3.1973  -3.1548  -3.1306  -3.0970  -2.9964  -2.9499  -2.8867

     highest occupied level (ev):    -2.8400

!    total energy              =    -413.92391153 Ry
     estimated scf accuracy    <       0.00000002 Ry

     The total energy is the sum of the following terms:
     one-electron contribution =    -315.72364109 Ry
     hartree contribution      =     190.03774841 Ry
     xc contribution           =    -101.36835556 Ry
     ewald contribution        =    -186.86966329 Ry

     convergence has been achieved in   8 iterations

     Forces acting on atoms (cartesian axes, Ry/au):

     atom    1 type  2   force =    -0.00804568    0.00942239    0.00947923
     atom    2 type  2   force =     0.00804568   -0.00942239   -0.00947923
     atom    3 type  2   force =    -0.00413719   -0.01167896    0.00947923
     atom    4 type  2   force =     0.00413719    0.01167896   -0.00947923
     atom    5 type  2   force =     0.01218287    0.00225657    0.00947923
     atom    6 type  2   force =    -0.01218287   -0.00225657   -0.00947923
     atom    7 type  2   force =     0.00113098   -0.00637211    0.00122806
     atom    8 type  2   force =    -0.00113098    0.00637211   -0.00122806
     atom    9 type  2   force =     0.00495291    0.00416551    0.00122806
     atom   10 type  2   force =    -0.00495291   -0.00416551   -0.00122806
     atom   11 type  2   force =    -0.00608390    0.00220659    0.00122806
     atom   12 type  2   force =     0.00608390   -0.00220659   -0.00122806
     atom   13 type  1   force =    -0.00647580    0.00046364   -0.02315859
     atom   14 type  1   force =     0.00647580   -0.00046364    0.02315859
     atom   15 type  1   force =     0.00283637   -0.00584002   -0.02315859
     atom   16 type  1   force =    -0.00283637    0.00584002    0.02315859
     atom   17 type  1   force =     0.00363942    0.00537638   -0.02315859
     atom   18 type  1   force =    -0.00363942   -0.00537638    0.02315859
     atom   19 type  1   force =     0.01394725   -0.01338299    0.00877915
     atom   20 type  1   force =    -0.01394725    0.01338299   -0.00877915
     atom   21 type  1   force =     0.00461639    0.01877017    0.00877915
     atom   22 type  1   force =    -0.00461639   -0.01877017   -0.00877915
     atom   23 type  1   force =    -0.01856363   -0.00538718    0.00877915
     atom   24 type  1   force =     0.01856363    0.00538718   -0.00877915
     atom   25 type  1   force =     0.00376163    0.00576705    0.00275581
     atom   26 type  1   force =    -0.00376163   -0.00576705   -0.00275581
     atom   27 type  1   force =    -0.00687523    0.00037415    0.00275581
     atom   28 type  1   force =     0.00687523   -0.00037415   -0.00275581
     atom   29 type  1   force =     0.00311359   -0.00614119    0.00275581
     atom   30 type  1   force =    -0.00311359    0.00614119   -0.00275581
     atom   31 type  1   force =    -0.00249552   -0.00553437    0.00039381
     atom   32 type  1   force =     0.00249552    0.00553437   -0.00039381
     atom   33 type  1   force =     0.00604066    0.00060600    0.00039381
     atom   34 type  1   force =    -0.00604066   -0.00060600   -0.00039381
     atom   35 type  1   force =    -0.00354514    0.00492837    0.00039381
     atom   36 type  1   force =     0.00354514   -0.00492837   -0.00039381

     Total force =     0.091911     Total SCF correction =     0.000129


     Computing stress (Cartesian axis) and pressure

          total   stress  (Ry/bohr**3)                   (kbar)     P=      -11.66
  -0.00010997  -0.00000000   0.00000000          -16.18       -0.00        0.00
   0.00000000  -0.00010997  -0.00000000            0.00      -16.18       -0.00
   0.00000000  -0.00000000  -0.00001783            0.00       -0.00       -2.62

     Energy error            =      1.9E-02 Ry
     Gradient error          =      2.3E-02 Ry/Bohr

     number of scf cycles    =   3
     number of bfgs steps    =   2

     energy             old  =    -413.9044982979 Ry
     energy             new  =    -413.9239115343 Ry

     CASE: energy            _new < energy            _old

     new trust radius        =       0.0663630147 bohr
     new conv_thr            =       0.0000001000 Ry


ATOMIC_POSITIONS (crystal)
O                0.2737129655        0.0370036322        0.8608773412
O                0.7262870345        0.9629963788        0.1391226288
O                0.8608773412        0.2737129655        0.0370036322
O                0.1391226288        0.7262870345        0.9629963788
O                0.0370036322        0.8608773412        0.2737129655
O                0.9629963788        0.1391226288        0.7262870345
O                0.4707853928        0.7478342732        0.3303755822
O                0.5292146072        0.2521657268        0.6696243878
O                0.3303755822        0.4707853928        0.7478342732
O                0.6696243878        0.5292146072        0.2521657268
O                0.7478342732        0.3303755822        0.4707853928
O                0.2521657268        0.6696243878        0.5292146072
H                0.1549782348        0.0559715222        0.8005415344
H                0.8450217512        0.9440284698        0.1994584656
H                0.8005415344        0.1549782348        0.0559715222
H                0.1994584656        0.8450217512        0.9440284698
H                0.0559715222        0.8005415344        0.1549782348
H                0.9440284698        0.1994584656        0.8450217512
H                0.4203739307        0.2020150135        0.9980245041
H                0.5796260693        0.7979850015        0.0019754749
H                0.9980245041        0.4203739307        0.2020150135
H                0.0019754749        0.5796260693        0.7979850015
H                0.2020150135        0.9980245041        0.4203739307
H                0.7979850015        0.0019754749        0.5796260693
H                0.7210737685        0.4015679026        0.3983603052
H                0.2789262315        0.5984320674        0.6016397248
H                0.3983603052        0.7210737685        0.4015679026
H                0.6016397248        0.2789262315        0.5984320674
H                0.4015679026        0.3983603052        0.7210737685
H                0.5984320674        0.6016397248        0.2789262315
H                0.7417873843        0.2065918899        0.3664598765
H                0.2582126157        0.7934080951        0.6335401235
H                0.3664598765        0.7417873843        0.2065918899
H                0.6335401235        0.2582126157        0.7934080951
H                0.2065918899        0.3664598765        0.7417873843
H                0.7934080951        0.6335401235        0.2582126157



     Writing config-only to output data dir ./iceII/iceII.save/ :
     XML data file
     NEW-OLD atomic charge density approx. for the potential

     negative rho (up, down):  1.240E-06 0.000E+00

     total cpu time spent up to now is       38.0 secs

     per-process dynamical memory:    29.1 Mb

     Self-consistent Calculation

     iteration #  1     ecut=    90.00 Ry     beta= 0.70
     Davidson diagonalization with overlap
     ethr =  1.00E-06,  avg # of iterations =  7.0

     negative rho (up, down):  8.070E-07 0.000E+00

     total cpu time spent up to now is       39.7 secs

     total energy              =    -413.93646274 Ry
     estimated scf accuracy    <       0.00166257 Ry

     iteration #  2     ecut=    90.00 Ry     beta= 0.70
     Davidson diagonalization with overlap
     ethr =  1.73E-06,  avg # of iterations =  2.5

     negative rho (up, down):  7.940E-07 0.000E+00

     total cpu time spent up to now is       40.6 secs

     total energy              =    -413.93678510 Ry
     estimated scf accuracy    <       0.00026025 Ry

     iteration #  3     ecut=    90.00 Ry     beta= 0.70
     Davidson diagonalization with overlap
     ethr =  2.71E-07,  avg # of iterations =  2.5

     negative rho (up, down):  7.838E-07 0.000E+00

     total cpu time spent up to now is       41.5 secs

     total energy              =    -413.93684171 Ry
     estimated scf accuracy    <       0.00002002 Ry

     iteration #  4     ecut=    90.00 Ry     beta= 0.70
     Davidson diagonalization with overlap
     ethr =  2.09E-08,  avg # of iterations =  2.0

     negative rho (up, down):  7.773E-07 0.000E+00

     total cpu time spent up to now is       42.3 secs

     total energy              =    -413.93684378 Ry
     estimated scf accuracy    <       0.00000183 Ry

     iteration #  5     ecut=    90.00 Ry     beta= 0.70
     Davidson diagonalization with overlap
     ethr =  1.91E-09,  avg # of iterations =  2.9

     negative rho (up, down):  7.762E-07 0.000E+00

     total cpu time spent up to now is       43.3 secs

     End of self-consistent calculation

          k = 0.0000 0.0000 0.0000 ( 33553 PWs)   bands (ev):

   -21.2839 -20.9762 -20.9762 -20.7868 -20.7868 -20.7524 -20.7524 -20.7487
   -20.7451 -20.5036 -20.5036 -20.3109  -8.9693  -8.8374  -8.8072  -8.8072
    -8.7843  -8.7843  -8.4593  -8.4593  -8.4292  -8.4149  -8.4149  -8.3112
    -6.9796  -6.0153  -6.0153  -5.6398  -5.6398  -5.4457  -5.4457  -5.2575
    -5.1786  -4.6340  -4.6340  -4.0636  -3.4074  -3.4074  -3.3528  -3.1954
    -3.1954  -3.1627  -3.0742  -3.0315  -2.9984  -2.9984  -2.9790  -2.9790

          k =-0.1498-0.0865 0.3111 ( 33497 PWs)   bands (ev):

   -21.2330 -20.9998 -20.9789 -20.8768 -20.8441 -20.8177 -20.7136 -20.6782
   -20.6485 -20.5093 -20.4845 -20.3463  -8.9404  -8.8619  -8.8287  -8.8142
    -8.7745  -8.7298  -8.4894  -8.4660  -8.4316  -8.3758  -8.3588  -8.3387
    -6.8233  -6.1762  -6.0581  -5.8500  -5.7365  -5.4570  -5.2536  -5.1994
    -5.0212  -4.6364  -4.5741  -4.1898  -3.4757  -3.4285  -3.3517  -3.2339
    -3.2264  -3.1806  -3.1603  -3.0533  -3.0282  -2.9750  -2.9449  -2.9197

          k = 0.2996 0.1730-0.6221 ( 33488 PWs)   bands (ev):

   -21.1321 -21.0660 -20.9981 -20.9244 -20.8799 -20.8453 -20.6904 -20.6430
   -20.5782 -20.5038 -20.4666 -20.4066  -8.8930  -8.8830  -8.8406  -8.8214
    -8.7697  -8.7108  -8.4843  -8.4718  -8.4175  -8.3983  -8.3294  -8.3182
    -6.4794  -6.4438  -6.1017  -6.0966  -5.6679  -5.6488  -5.1237  -5.0774
    -4.7376  -4.7014  -4.5319  -4.4045  -3.5378  -3.4397  -3.3564  -3.2742
    -3.2443  -3.2378  -3.1392  -3.1265  -3.0555  -2.9622  -2.9052  -2.8813

          k =-0.1498 0.0865 0.6221 ( 33454 PWs)   bands (ev):

   -21.1405 -21.0335 -21.0191 -20.9224 -20.8862 -20.8537 -20.6765 -20.6333
   -20.5905 -20.4980 -20.4798 -20.4009  -8.8957  -8.8695  -8.8632  -8.8067
    -8.7718  -8.7103  -8.4817  -8.4753  -8.4389  -8.3596  -8.3414  -8.3238
    -6.5377  -6.3069  -6.2783  -5.9183  -5.7879  -5.6362  -5.1410  -4.9398
    -4.8858  -4.6221  -4.5570  -4.4065  -3.5247  -3.4602  -3.3502  -3.2697
    -3.2555  -3.2023  -3.1815  -3.0945  -3.0683  -2.9581  -2.9202  -2.8710

          k = 0.2996 0.3460-0.3111 ( 33494 PWs)   bands (ev):

   -21.1668 -21.0584 -21.0119 -20.9128 -20.8581 -20.8325 -20.6897 -20.6378
   -20.5837 -20.5234 -20.4638 -20.3916  -8.9138  -8.8904  -8.8253  -8.8028
    -8.7766  -8.7079  -8.5417  -8.5220  -8.4629  -8.3476  -8.3264  -8.3074
    -6.5946  -6.2935  -6.1311  -5.9740  -5.9013  -5.4843  -5.0789  -4.9731
    -4.9434  -4.6744  -4.5599  -4.3401  -3.4747  -3.4223  -3.3629  -3.2889
    -3.2068  -3.1662  -3.1402  -3.1136  -3.0676  -2.9992  -2.9150  -2.8585

          k = 0.1498 0.2595 0.0000 ( 33507 PWs)   bands (ev):

   -21.2460 -21.0265 -20.9889 -20.8573 -20.8267 -20.7625 -20.7457 -20.6791
   -20.6586 -20.5122 -20.4836 -20.3394  -8.9525  -8.8653  -8.8281  -8.8089
    -8.7523  -8.7456  -8.5532  -8.5111  -8.4326  -8.3887  -8.3523  -8.3062
    -6.8375  -6.0889  -6.0581  -5.8816  -5.7976  -5.3833  -5.2436  -5.1071
    -5.0740  -4.6759  -4.6177  -4.1427  -3.4067  -3.3954  -3.3679  -3.2495
    -3.1920  -3.1570  -3.0955  -3.0748  -3.0452  -3.0130  -2.9245  -2.9119

          k = 0.2996-0.1730-1.2442 ( 33484 PWs)   bands (ev):

   -21.1490 -21.1408 -21.0000 -20.8904 -20.8348 -20.7726 -20.7215 -20.6600
   -20.6023 -20.5261 -20.4338 -20.3949  -8.9210  -8.8985  -8.8332  -8.8118
    -8.7269  -8.7150  -8.6101  -8.5544  -8.4441  -8.3780  -8.3198  -8.3016
    -6.4825  -6.4821  -6.0659  -6.0446  -5.7062  -5.4805  -5.1085  -5.0362
    -4.8754  -4.7992  -4.4675  -4.3277  -3.4083  -3.3804  -3.3794  -3.2929
    -3.1910  -3.1273  -3.1261  -3.1129  -3.0607  -3.0224  -2.8984  -2.8754

          k = 0.0000 0.0000 0.9332 ( 33420 PWs)   bands (ev):

   -21.0858 -21.0837 -21.0837 -20.9182 -20.8576 -20.8576 -20.6273 -20.6273
   -20.6011 -20.4747 -20.4747 -20.4386  -8.8951  -8.8951  -8.8511  -8.7632
    -8.7596  -8.7596  -8.5640  -8.5050  -8.5050  -8.3124  -8.3124  -8.2962
    -6.3882  -6.3882  -6.2418  -6.1295  -5.7041  -5.7041  -4.9056  -4.9056
    -4.7877  -4.6263  -4.6263  -4.5624  -3.4343  -3.4343  -3.3512  -3.3121
    -3.1751  -3.1751  -3.1463  -3.1135  -3.1135  -2.9574  -2.9574  -2.8388

          k = 0.4494 0.2595 0.0000 ( 33507 PWs)   bands (ev):

   -21.1764 -21.0706 -21.0586 -20.8733 -20.8248 -20.7890 -20.7012 -20.6738
   -20.6151 -20.4950 -20.4621 -20.3863  -8.9238  -8.8841  -8.8584  -8.7848
    -8.7550  -8.7009  -8.6186  -8.5256  -8.4801  -8.3486  -8.3258  -8.3083
    -6.5929  -6.2408  -6.2212  -6.0490  -5.6751  -5.4434  -5.1516  -5.1190
    -4.8276  -4.6776  -4.5779  -4.3006  -3.3968  -3.3911  -3.3763  -3.2944
    -3.2064  -3.1557  -3.1099  -3.0976  -3.0403  -3.0031  -2.9450  -2.8581

          k = 0.2996 0.1730 0.3111 ( 33499 PWs)   bands (ev):

   -21.1986 -21.0342 -20.9848 -20.9168 -20.8451 -20.8136 -20.7068 -20.6774
   -20.5946 -20.5295 -20.4645 -20.3645  -8.9267  -8.8736  -8.8407  -8.7957
    -8.7829  -8.6929  -8.5513  -8.4613  -8.4216  -8.4136  -8.3390  -8.3312
    -6.6983  -6.2016  -6.1191  -5.8950  -5.8357  -5.4819  -5.1724  -5.0999
    -5.0049  -4.6296  -4.5603  -4.2315  -3.4926  -3.4200  -3.3731  -3.2764
    -3.2255  -3.1815  -3.1359  -3.0848  -3.0383  -2.9885  -2.9300  -2.8723

          k = 0.4494-0.2595-0.9332 ( 33514 PWs)   bands (ev):

   -21.1196 -21.1019 -21.0189 -20.9302 -20.8510 -20.8043 -20.7131 -20.6606
   -20.5530 -20.5240 -20.4702 -20.3833  -8.9016  -8.8892  -8.8553  -8.7944
    -8.7659  -8.6617  -8.5926  -8.4912  -8.4339  -8.4050  -8.3363  -8.3229
    -6.4621  -6.3505  -6.1477  -6.0705  -5.7767  -5.4503  -5.2727  -5.0694
    -4.7808  -4.6336  -4.5844  -4.2905  -3.4995  -3.4227  -3.3952  -3.2823
    -3.2437  -3.2171  -3.1012  -3.0683  -3.0553  -3.0022  -2.9282  -2.8393

          k = 0.2996-0.3460-0.6221 ( 33488 PWs)   bands (ev):

   -21.1133 -21.0443 -21.0129 -20.9634 -20.8746 -20.8562 -20.6778 -20.6520
   -20.5432 -20.5149 -20.4930 -20.3886  -8.9057  -8.8545  -8.8357  -8.8177
    -8.7994  -8.6669  -8.5000  -8.4922  -8.4083  -8.3947  -8.3461  -8.3402
    -6.4045  -6.3708  -6.1456  -6.1158  -5.7345  -5.7008  -5.0765  -5.0347
    -4.7776  -4.7559  -4.4948  -4.3497  -3.5581  -3.4374  -3.3987  -3.3024
    -3.2723  -3.1873  -3.1315  -3.0986  -3.0793  -2.9607  -2.9372  -2.8300

          k = 0.0000 0.0000-1.8663 ( 33534 PWs)   bands (ev):

   -21.0925 -21.0200 -21.0200 -20.9754 -20.8963 -20.8963 -20.6391 -20.6391
   -20.5341 -20.5341 -20.5129 -20.3742  -8.9096  -8.8329  -8.8329  -8.8142
    -8.8142  -8.6339  -8.5155  -8.5116  -8.3907  -8.3907  -8.3690  -8.3690
    -6.3949  -6.2880  -6.0364  -6.0364  -5.8932  -5.8932  -4.9125  -4.9125
    -4.8916  -4.8916  -4.4505  -4.3070  -3.5725  -3.4285  -3.4285  -3.3258
    -3.3258  -3.1593  -3.1264  -3.0622  -3.0622  -2.9682  -2.9682  -2.8008

          k = 0.2996-0.3460 0.3111 ( 33494 PWs)   bands (ev):

   -21.1653 -21.0692 -20.9969 -20.9139 -20.8660 -20.8329 -20.6712 -20.6515
   -20.5922 -20.5084 -20.4721 -20.3908  -8.9178  -8.8787  -8.8345  -8.8125
    -8.7577  -8.7155  -8.5556  -8.5109  -8.4589  -8.3445  -8.3297  -8.3086
    -6.5941  -6.3017  -6.1435  -5.9502  -5.8764  -5.5230  -5.1496  -4.9159
    -4.8613  -4.7044  -4.6048  -4.3243  -3.4798  -3.4024  -3.3793  -3.2816
    -3.2040  -3.1736  -3.1412  -3.1062  -3.0888  -2.9807  -2.9148  -2.8632

     highest occupied level (ev):    -2.8008

!    total energy              =    -413.93684421 Ry
     estimated scf accuracy    <       0.00000009 Ry

     The total energy is the sum of the following terms:
     one-electron contribution =    -314.04887954 Ry
     hartree contribution      =     189.26886990 Ry
     xc contribution           =    -101.26681624 Ry
     ewald contribution        =    -187.89001832 Ry

     convergence has been achieved in   5 iterations

     Forces acting on atoms (cartesian axes, Ry/au):

     atom    1 type  2   force =    -0.00559479    0.00427022    0.00109138
     atom    2 type  2   force =     0.00559479   -0.00427022   -0.00109138
     atom    3 type  2   force =    -0.00090072   -0.00698034    0.00109138
     atom    4 type  2   force =     0.00090072    0.00698034   -0.00109138
     atom    5 type  2   force =     0.00649551    0.00271012    0.00109138
     atom    6 type  2   force =    -0.00649551   -0.00271012   -0.00109138
     atom    7 type  2   force =    -0.00342222    0.00050630   -0.00459980
     atom    8 type  2   force =     0.00342222   -0.00050630    0.00459980
     atom    9 type  2   force =     0.00127264   -0.00321688   -0.00459980
     atom   10 type  2   force =    -0.00127264    0.00321688    0.00459980
     atom   11 type  2   force =     0.00214958    0.00271058   -0.00459980
     atom   12 type  2   force =    -0.00214958   -0.00271058    0.00459980
     atom   13 type  1   force =    -0.00185903   -0.00681569   -0.00271723
     atom   14 type  1   force =     0.00185903    0.00681569    0.00271723
     atom   15 type  1   force =     0.00683208    0.00179788   -0.00271723
     atom   16 type  1   force =    -0.00683208   -0.00179788    0.00271723
     atom   17 type  1   force =    -0.00497305    0.00501781   -0.00271723
     atom   18 type  1   force =     0.00497305   -0.00501781    0.00271723
     atom   19 type  1   force =     0.00630845   -0.00028280   -0.00243626
     atom   20 type  1   force =    -0.00630845    0.00028280    0.00243626
     atom   21 type  1   force =    -0.00290931    0.00560468   -0.00243626
     atom   22 type  1   force =     0.00290931   -0.00560468    0.00243626
     atom   23 type  1   force =    -0.00339914   -0.00532188   -0.00243626
     atom   24 type  1   force =     0.00339914    0.00532188    0.00243626
     atom   25 type  1   force =     0.00105898   -0.00245618    0.00330646
     atom   26 type  1   force =    -0.00105898    0.00245618   -0.00330646
     atom   27 type  1   force =     0.00159763    0.00214520    0.00330646
     atom   28 type  1   force =    -0.00159763   -0.00214520   -0.00330646
     atom   29 type  1   force =    -0.00265661    0.00031099    0.00330646
     atom   30 type  1   force =     0.00265661   -0.00031099   -0.00330646
     atom   31 type  1   force =    -0.00765636    0.00098374    0.00475811
     atom   32 type  1   force =     0.00765636   -0.00098374   -0.00475811
     atom   33 type  1   force =     0.00297624   -0.00712247    0.00475811
     atom   34 type  1   force =    -0.00297624    0.00712247   -0.00475811
     atom   35 type  1   force =     0.00468012    0.00613874    0.00475811
     atom   36 type  1   force =    -0.00468012   -0.00613874   -0.00475811

     Total force =     0.041517     Total SCF correction =     0.000310


     Computing stress (Cartesian axis) and pressure

          total   stress  (Ry/bohr**3)                   (kbar)     P=      -22.10
  -0.00017413   0.00000000   0.00000000          -25.62        0.00        0.00
  -0.00000000  -0.00017413  -0.00000000           -0.00      -25.62       -0.00
   0.00000000  -0.00000000  -0.00010234            0.00       -0.00      -15.06

     Energy error            =      1.3E-02 Ry
     Gradient error          =      7.7E-03 Ry/Bohr

     number of scf cycles    =   4
     number of bfgs steps    =   3

     energy             old  =    -413.9239115343 Ry
     energy             new  =    -413.9368442054 Ry

     CASE: energy            _new < energy            _old

     new trust radius        =       0.0184851316 bohr
     new conv_thr            =       0.0000000766 Ry


ATOMIC_POSITIONS (crystal)
O                0.2734051286        0.0375046958        0.8613114639
O                0.7265948714        0.9624953152        0.1386885061
O                0.8613114639        0.2734051286        0.0375046958
O                0.1386885061        0.7265948714        0.9624953152
O                0.0375046958        0.8613114639        0.2734051286
O                0.9624953152        0.1386885061        0.7265948714
O                0.4702971412        0.7473487146        0.3301619286
O                0.5297028588        0.2526512854        0.6698380414
O                0.3301619286        0.4702971412        0.7473487146
O                0.6698380414        0.5297028588        0.2526512854
O                0.7473487146        0.3301619286        0.4702971412
O                0.2526512854        0.6698380414        0.5297028588
H                0.1534671729        0.0544135715        0.7995436707
H                0.8465328131        0.9455864205        0.2004563293
H                0.7995436707        0.1534671729        0.0544135715
H                0.2004563293        0.8465328131        0.9455864205
H                0.0544135715        0.7995436707        0.1534671729
H                0.9455864205        0.2004563293        0.8465328131
H                0.4216717111        0.2022753935        0.9981863759
H                0.5783282889        0.7977246215        0.0018136031
H                0.9981863759        0.4216717111        0.2022753935
H                0.0018136031        0.5783282889        0.7977246215
H                0.2022753935        0.9981863759        0.4216717111
H                0.7977246215        0.0018136031        0.5783282889
H                0.7215921054        0.4019975208        0.3986583486
H                0.2784078946        0.5980024492        0.6013416814
H                0.3986583486        0.7215921054        0.4019975208
H                0.6013416814        0.2784078946        0.5980024492
H                0.4019975208        0.3986583486        0.7215921054
H                0.5980024492        0.6013416814        0.2784078946
H                0.7418911011        0.2069777414        0.3673576471
H                0.2581088989        0.7930222436        0.6326423529
H                0.3673576471        0.7418911011        0.2069777414
H                0.6326423529        0.2581088989        0.7930222436
H                0.2069777414        0.3673576471        0.7418911011
H                0.7930222436        0.6326423529        0.2581088989



     Writing config-only to output data dir ./iceII/iceII.save/ :
     XML data file
     NEW-OLD atomic charge density approx. for the potential

     negative rho (up, down):  8.068E-07 0.000E+00

     total cpu time spent up to now is       44.5 secs

     per-process dynamical memory:    29.1 Mb

     Self-consistent Calculation

     iteration #  1     ecut=    90.00 Ry     beta= 0.70
     Davidson diagonalization with overlap
     ethr =  1.00E-06,  avg # of iterations =  4.0

     negative rho (up, down):  7.142E-07 0.000E+00

     total cpu time spent up to now is       45.8 secs

     total energy              =    -413.93824356 Ry
     estimated scf accuracy    <       0.00024303 Ry

     iteration #  2     ecut=    90.00 Ry     beta= 0.70
     Davidson diagonalization with overlap
     ethr =  2.53E-07,  avg # of iterations =  2.0

     negative rho (up, down):  6.940E-07 0.000E+00

     total cpu time spent up to now is       46.7 secs

     total energy              =    -413.93829894 Ry
     estimated scf accuracy    <       0.00005094 Ry

     iteration #  3     ecut=    90.00 Ry     beta= 0.70
     Davidson diagonalization with overlap
     ethr =  5.31E-08,  avg # of iterations =  2.0

     negative rho (up, down):  6.828E-07 0.000E+00

     total cpu time spent up to now is       47.6 secs

     total energy              =    -413.93831012 Ry
     estimated scf accuracy    <       0.00000319 Ry

     iteration #  4     ecut=    90.00 Ry     beta= 0.70
     Davidson diagonalization with overlap
     ethr =  3.32E-09,  avg # of iterations =  2.0

     negative rho (up, down):  6.811E-07 0.000E+00

[...]
H                0.4149692553        0.7282094923        0.4115274924
H                0.5850307747        0.2717905077        0.5884724776
H                0.4115274924        0.4149692553        0.7282094923
H                0.5884724776        0.5850307747        0.2717905077
H                0.7467626059        0.2170691847        0.3866447663
H                0.2532373941        0.7829308003        0.6133552337
H                0.3866447663        0.7467626059        0.2170691847
H                0.6133552337        0.2532373941        0.7829308003
H                0.2170691847        0.3866447663        0.7467626059
H                0.7829308003        0.6133552337        0.2532373941



     Writing config-only to output data dir ./iceII/iceII.save/ :
     XML data file
     NEW-OLD atomic charge density approx. for the potential

     negative rho (up, down):  1.760E-06 0.000E+00

     total cpu time spent up to now is      389.2 secs

     per-process dynamical memory:    33.3 Mb

     Self-consistent Calculation

     iteration #  1     ecut=    90.00 Ry     beta= 0.70
     Davidson diagonalization with overlap
     ethr =  1.00E-06,  avg # of iterations =  3.9

     Threshold (ethr) on eigenvalues was too large:
     Diagonalizing with lowered threshold

     Davidson diagonalization with overlap
     ethr =  8.37E-08,  avg # of iterations =  2.6

     negative rho (up, down):  1.708E-06 0.000E+00

     total cpu time spent up to now is      391.2 secs

     total energy              =    -413.94799192 Ry
     estimated scf accuracy    <       0.00009503 Ry

     iteration #  2     ecut=    90.00 Ry     beta= 0.70
     Davidson diagonalization with overlap
     ethr =  9.90E-08,  avg # of iterations =  2.0

     negative rho (up, down):  1.690E-06 0.000E+00

     total cpu time spent up to now is      391.9 secs

     total energy              =    -413.94800416 Ry
     estimated scf accuracy    <       0.00000478 Ry

     iteration #  3     ecut=    90.00 Ry     beta= 0.70
     Davidson diagonalization with overlap
     ethr =  4.98E-09,  avg # of iterations =  2.5

     negative rho (up, down):  1.686E-06 0.000E+00

     total cpu time spent up to now is      392.8 secs

     total energy              =    -413.94800498 Ry
     estimated scf accuracy    <       0.00000028 Ry

     iteration #  4     ecut=    90.00 Ry     beta= 0.70
     Davidson diagonalization with overlap
     ethr =  2.94E-10,  avg # of iterations =  3.4

     negative rho (up, down):  1.686E-06 0.000E+00

     total cpu time spent up to now is      393.8 secs

     total energy              =    -413.94800506 Ry
     estimated scf accuracy    <       0.00000006 Ry

     iteration #  5     ecut=    90.00 Ry     beta= 0.70
     Davidson diagonalization with overlap
     ethr =  6.41E-11,  avg # of iterations =  2.8

     negative rho (up, down):  1.686E-06 0.000E+00

     total cpu time spent up to now is      394.8 secs

     total energy              =    -413.94800508 Ry
     estimated scf accuracy    <          1.9E-09 Ry

     iteration #  6     ecut=    90.00 Ry     beta= 0.70
     Davidson diagonalization with overlap
     ethr =  1.95E-12,  avg # of iterations =  4.3

     negative rho (up, down):  1.686E-06 0.000E+00

     total cpu time spent up to now is      395.8 secs

     End of self-consistent calculation

          k = 0.0000 0.0000 0.0000 ( 33553 PWs)   bands (ev):

   -21.3110 -21.0230 -21.0230 -20.8003 -20.7918 -20.7918 -20.7573 -20.7573
   -20.7327 -20.4849 -20.4849 -20.2756  -8.9431  -8.8439  -8.7791  -8.7791
    -8.7604  -8.7604  -8.4848  -8.4848  -8.4131  -8.4131  -8.3998  -8.3599
    -6.9418  -6.0423  -6.0423  -5.6524  -5.6524  -5.4328  -5.3537  -5.3537
    -5.1041  -4.6117  -4.6117  -3.9777  -3.4098  -3.4098  -3.2930  -3.2000
    -3.2000  -3.1915  -3.0868  -3.0661  -3.0185  -3.0185  -3.0159  -3.0159

          k =-0.1498-0.0865 0.3111 ( 33497 PWs)   bands (ev):

   -21.2643 -21.0392 -21.0267 -20.8803 -20.8674 -20.8307 -20.7261 -20.6784
   -20.6561 -20.4905 -20.4682 -20.3094  -8.9204  -8.8431  -8.8167  -8.8013
    -8.7582  -8.7202  -8.4911  -8.4735  -8.4211  -8.3794  -8.3672  -8.3562
    -6.7958  -6.1811  -6.0596  -5.8572  -5.7568  -5.5450  -5.1842  -5.1689
    -4.9516  -4.6301  -4.5616  -4.1070  -3.4662  -3.4246  -3.3121  -3.2621
    -3.2423  -3.2012  -3.1462  -3.0851  -3.0461  -3.0254  -2.9688  -2.9523

          k = 0.2996 0.1730-0.6221 ( 33488 PWs)   bands (ev):

   -21.1813 -21.0904 -21.0372 -20.9214 -20.9122 -20.8572 -20.7046 -20.6377
   -20.6018 -20.4847 -20.4520 -20.3606  -8.8814  -8.8562  -8.8360  -8.8124
    -8.7682  -8.7051  -8.4747  -8.4579  -8.4295  -8.3985  -8.3319  -8.3208
    -6.4592  -6.4426  -6.1295  -6.0454  -5.7305  -5.7068  -5.0521  -5.0279
    -4.6974  -4.6917  -4.4993  -4.3531  -3.5201  -3.4367  -3.3376  -3.3117
    -3.2721  -3.1925  -3.1663  -3.1539  -3.0535  -3.0199  -2.9394  -2.9181

          k =-0.1498 0.0865 0.6221 ( 33454 PWs)   bands (ev):

   -21.1868 -21.0638 -21.0519 -20.9412 -20.8968 -20.8668 -20.6879 -20.6461
   -20.5976 -20.4822 -20.4634 -20.3564  -8.8814  -8.8501  -8.8428  -8.8174
    -8.7591  -8.7077  -8.4731  -8.4606  -8.4439  -8.3707  -8.3436  -8.3223
    -6.5278  -6.2950  -6.2548  -5.9231  -5.8582  -5.6692  -5.0974  -4.8709
    -4.8469  -4.6178  -4.5280  -4.3487  -3.5131  -3.4424  -3.3546  -3.2955
    -3.2394  -3.2324  -3.1751  -3.1211  -3.0798  -2.9955  -2.9651  -2.9047

          k = 0.2996 0.3460-0.3111 ( 33494 PWs)   bands (ev):

   -21.2020 -21.0961 -21.0498 -20.9282 -20.8664 -20.8412 -20.7091 -20.6568
   -20.5978 -20.4940 -20.4451 -20.3504  -8.8909  -8.8666  -8.8210  -8.7852
    -8.7707  -8.7072  -8.5244  -8.5044  -8.4497  -8.3621  -8.3549  -8.3255
    -6.5790  -6.2786  -6.1661  -5.9944  -5.8793  -5.4958  -5.1127  -4.9448
    -4.8725  -4.6351  -4.5365  -4.2778  -3.4687  -3.4026  -3.3532  -3.2806
    -3.2310  -3.1744  -3.1593  -3.1408  -3.0875  -3.0355  -2.9383  -2.8989

          k = 0.1498 0.2595 0.0000 ( 33507 PWs)   bands (ev):

   -21.2741 -21.0681 -21.0319 -20.8710 -20.8345 -20.7734 -20.7602 -20.7037
   -20.6614 -20.4894 -20.4616 -20.3040  -8.9247  -8.8508  -8.8026  -8.7935
    -8.7374  -8.7346  -8.5373  -8.5097  -8.4183  -8.4071  -8.3708  -8.3513
    -6.8105  -6.1129  -6.0869  -5.8834  -5.7722  -5.3479  -5.2877  -5.1409
    -4.9940  -4.6400  -4.5923  -4.0677  -3.4106  -3.3945  -3.3185  -3.2394
    -3.1941  -3.1827  -3.1275  -3.1023  -3.0800  -3.0437  -2.9523  -2.9332

          k = 0.2996-0.1730-1.2442 ( 33484 PWs)   bands (ev):

   -21.1870 -21.1661 -21.0400 -20.9111 -20.8423 -20.7770 -20.7442 -20.6897
   -20.6082 -20.4964 -20.4209 -20.3502  -8.8903  -8.8758  -8.8100  -8.7986
    -8.7276  -8.7174  -8.5730  -8.5339  -8.4281  -8.4044  -8.3557  -8.3396
    -6.5039  -6.4442  -6.0748  -6.0671  -5.7022  -5.4489  -5.1339  -5.0708
    -4.8296  -4.7239  -4.4409  -4.2653  -3.4088  -3.3726  -3.3470  -3.2747
    -3.1856  -3.1647  -3.1607  -3.1332  -3.1076  -3.0462  -2.9273  -2.8937

          k = 0.0000 0.0000 0.9332 ( 33420 PWs)   bands (ev):

   -21.1481 -21.1058 -21.1058 -20.9335 -20.8675 -20.8675 -20.6525 -20.6525
   -20.6084 -20.4555 -20.4555 -20.3845  -8.8706  -8.8706  -8.8478  -8.7797
    -8.7418  -8.7418  -8.5414  -8.4849  -8.4849  -8.3398  -8.3398  -8.3136
    -6.3530  -6.3530  -6.2408  -6.2082  -5.7099  -5.7099  -4.9217  -4.9217
    -4.6783  -4.6020  -4.6020  -4.4926  -3.4204  -3.4204  -3.3636  -3.2963
    -3.1903  -3.1903  -3.1490  -3.1490  -3.1365  -2.9765  -2.9765  -2.8951

          k = 0.4494 0.2595 0.0000 ( 33507 PWs)   bands (ev):

   -21.2080 -21.1119 -21.0847 -20.8935 -20.8402 -20.8005 -20.7195 -20.6919
   -20.6216 -20.4740 -20.4416 -20.3456  -8.8951  -8.8608  -8.8364  -8.7715
    -8.7412  -8.7164  -8.5815  -8.5090  -8.4626  -8.3748  -8.3569  -8.3481
    -6.5819  -6.2538  -6.2063  -6.0710  -5.6731  -5.4262  -5.1975  -5.0921
    -4.7680  -4.6467  -4.5505  -4.2385  -3.4063  -3.3730  -3.3439  -3.2687
    -3.2198  -3.1819  -3.1452  -3.1413  -3.0647  -3.0283  -2.9691  -2.8798

          k = 0.2996 0.1730 0.3111 ( 33499 PWs)   bands (ev):

   -21.2319 -21.0730 -21.0297 -20.9260 -20.8586 -20.8227 -20.7219 -20.6927
   -20.5979 -20.5090 -20.4480 -20.3256  -8.9044  -8.8456  -8.8267  -8.7908
    -8.7682  -8.6957  -8.5324  -8.4638  -8.4249  -8.4061  -8.3637  -8.3456
    -6.6837  -6.2242  -6.1205  -5.9161  -5.7975  -5.5239  -5.1461  -5.0703
    -4.9676  -4.5997  -4.5377  -4.1668  -3.4904  -3.3957  -3.3397  -3.2926
    -3.2442  -3.2060  -3.1416  -3.0957  -3.0802  -3.0262  -2.9818  -2.8806

          k = 0.4494-0.2595-0.9332 ( 33514 PWs)   bands (ev):

   -21.1691 -21.1242 -21.0544 -20.9443 -20.8625 -20.8218 -20.7224 -20.6781
   -20.5656 -20.4989 -20.4547 -20.3408  -8.8744  -8.8636  -8.8323  -8.7879
    -8.7640  -8.6801  -8.5573  -8.4800  -8.4248  -8.4175  -8.3605  -8.3447
    -6.4973  -6.3165  -6.1739  -6.0638  -5.7547  -5.4615  -5.2506  -5.0432
    -4.7725  -4.5730  -4.5556  -4.2506  -3.4985  -3.3837  -3.3664  -3.2965
    -3.2681  -3.2311  -3.1326  -3.0968  -3.0729  -3.0457  -2.9757  -2.8445

          k = 0.2996-0.3460-0.6221 ( 33488 PWs)   bands (ev):

   -21.1653 -21.0735 -21.0507 -20.9728 -20.8844 -20.8645 -20.6955 -20.6655
   -20.5518 -20.4939 -20.4768 -20.3460  -8.8773  -8.8396  -8.8263  -8.8096
    -8.7919  -8.6818  -8.4905  -8.4663  -8.4221  -8.4024  -8.3482  -8.3400
    -6.4446  -6.3589  -6.1399  -6.0906  -5.7445  -5.7050  -5.0646  -5.0074
    -4.7474  -4.7151  -4.4217  -4.3417  -3.5473  -3.4120  -3.3699  -3.3281
    -3.2818  -3.2397  -3.1297  -3.1235  -3.0641  -3.0212  -2.9953  -2.8452

          k = 0.0000 0.0000-1.8663 ( 33534 PWs)   bands (ev):

   -21.1482 -21.0586 -21.0586 -20.9804 -20.8986 -20.8986 -20.6613 -20.6613
   -20.5302 -20.5057 -20.5057 -20.3331  -8.8710  -8.8187  -8.8187  -8.8084
    -8.8084  -8.6687  -8.5047  -8.4730  -8.4083  -8.4083  -8.3653  -8.3653
    -6.4682  -6.2819  -6.0319  -6.0319  -5.8522  -5.8522  -4.9384  -4.9384
    -4.8244  -4.8244  -4.3625  -4.3207  -3.5554  -3.3903  -3.3903  -3.3529
    -3.3529  -3.2355  -3.0855  -3.0855  -3.0649  -3.0363  -3.0363  -2.8093

          k = 0.2996-0.3460 0.3111 ( 33494 PWs)   bands (ev):

   -21.2008 -21.1048 -21.0389 -20.9300 -20.8704 -20.8415 -20.6969 -20.6671
   -20.6005 -20.4821 -20.4546 -20.3496  -8.8957  -8.8546  -8.8216  -8.7998
    -8.7640  -8.7058  -8.5285  -8.5024  -8.4470  -8.3661  -8.3489  -8.3284
    -6.5782  -6.3068  -6.1358  -5.9836  -5.8706  -5.5320  -5.1478  -4.8901
    -4.8310  -4.6577  -4.5743  -4.2651  -3.4729  -3.3888  -3.3605  -3.2835
    -3.2218  -3.1914  -3.1534  -3.1203  -3.1149  -3.0247  -2.9392  -2.8994

     highest occupied level (ev):    -2.8093

!    total energy              =    -413.94800508 Ry
     estimated scf accuracy    <          9.4E-10 Ry

     The total energy is the sum of the following terms:
     one-electron contribution =    -311.45912439 Ry
     hartree contribution      =     188.00366792 Ry
     xc contribution           =    -101.31768701 Ry
     ewald contribution        =    -189.17486161 Ry

     convergence has been achieved in   6 iterations

     Forces acting on atoms (cartesian axes, Ry/au):

     atom    1 type  2   force =    -0.00013051    0.00030058    0.00031464
     atom    2 type  2   force =     0.00013051   -0.00030058   -0.00031464
     atom    3 type  2   force =    -0.00019506   -0.00026332    0.00031464
     atom    4 type  2   force =     0.00019506    0.00026332   -0.00031464
     atom    5 type  2   force =     0.00032557   -0.00003726    0.00031464
     atom    6 type  2   force =    -0.00032557    0.00003726   -0.00031464
     atom    7 type  2   force =    -0.00001150   -0.00006437   -0.00007892
     atom    8 type  2   force =     0.00001150    0.00006437    0.00007892
     atom    9 type  2   force =     0.00006150    0.00002223   -0.00007892
     atom   10 type  2   force =    -0.00006150   -0.00002223    0.00007892
     atom   11 type  2   force =    -0.00005000    0.00004215   -0.00007892
     atom   12 type  2   force =     0.00005000   -0.00004215    0.00007892
     atom   13 type  1   force =     0.00003495   -0.00023570   -0.00006071
     atom   14 type  1   force =    -0.00003495    0.00023570    0.00006071
     atom   15 type  1   force =     0.00018665    0.00014812   -0.00006071
     atom   16 type  1   force =    -0.00018665   -0.00014812    0.00006071
     atom   17 type  1   force =    -0.00022160    0.00008759   -0.00006071
     atom   18 type  1   force =     0.00022160   -0.00008759    0.00006071
     atom   19 type  1   force =     0.00008922   -0.00010594   -0.00017696
     atom   20 type  1   force =    -0.00008922    0.00010594    0.00017696
     atom   21 type  1   force =     0.00004713    0.00013023   -0.00017696
     atom   22 type  1   force =    -0.00004713   -0.00013023    0.00017696
     atom   23 type  1   force =    -0.00013635   -0.00002430   -0.00017696
     atom   24 type  1   force =     0.00013635    0.00002430    0.00017696
     atom   25 type  1   force =    -0.00010808   -0.00013035   -0.00017071
     atom   26 type  1   force =     0.00010808    0.00013035    0.00017071
     atom   27 type  1   force =     0.00016692   -0.00002842   -0.00017071
     atom   28 type  1   force =    -0.00016692    0.00002842    0.00017071
     atom   29 type  1   force =    -0.00005885    0.00015877   -0.00017071
     atom   30 type  1   force =     0.00005885   -0.00015877    0.00017071
     atom   31 type  1   force =     0.00003730    0.00015579    0.00014027
     atom   32 type  1   force =    -0.00003730   -0.00015579   -0.00014027
     atom   33 type  1   force =    -0.00015357   -0.00004559    0.00014027
     atom   34 type  1   force =     0.00015357    0.00004559   -0.00014027
     atom   35 type  1   force =     0.00011627   -0.00011020    0.00014027
     atom   36 type  1   force =    -0.00011627    0.00011020   -0.00014027

     Total force =     0.001608     Total SCF correction =     0.000025


     Computing stress (Cartesian axis) and pressure

          total   stress  (Ry/bohr**3)                   (kbar)     P=      -17.99
  -0.00014024   0.00000000   0.00000000          -20.63        0.00        0.00
  -0.00000000  -0.00014024  -0.00000000           -0.00      -20.63       -0.00
  -0.00000000  -0.00000000  -0.00008646           -0.00       -0.00      -12.72

     Energy error            =      1.2E-05 Ry
     Gradient error          =      3.3E-04 Ry/Bohr

     number of scf cycles    =  50
     number of bfgs steps    =  49

     energy             old  =    -413.9479929100 Ry
     energy             new  =    -413.9480050812 Ry

     CASE: energy            _new < energy            _old

     new trust radius        =       0.0013326950 bohr

     The maximum number of steps has been reached.

     End of BFGS Geometry Optimization

ATOMIC_POSITIONS (crystal)
O                0.2647136425        0.0173305429        0.8567828502
O                0.7352863575        0.9826694681        0.1432171198
O                0.8567828502        0.2647136425        0.0173305429
O                0.1432171198        0.7352863575        0.9826694681
O                0.0173305429        0.8567828502        0.2647136425
O                0.9826694681        0.1432171198        0.7352863575
O                0.4879510340        0.7506087627        0.3395881168
O                0.5120489660        0.2493912373        0.6604118532
O                0.3395881168        0.4879510340        0.7506087627
O                0.6604118532        0.5120489660        0.2493912373
O                0.7506087627        0.3395881168        0.4879510340
O                0.2493912373        0.6604118532        0.5120489660
H                0.1465094923        0.0373341509        0.7985418252
H                0.8534904937        0.9626658411        0.2014581748
H                0.7985418252        0.1465094923        0.0373341509
H                0.2014581748        0.8534904937        0.9626658411
H                0.0373341509        0.7985418252        0.1465094923
H                0.9626658411        0.2014581748        0.8534904937
H                0.4141955167        0.1818149777        0.9852197872
H                0.5858044833        0.8181850373        0.0147801918
H                0.9852197872        0.4141955167        0.1818149777
H                0.0147801918        0.5858044833        0.8181850373
H                0.1818149777        0.9852197872        0.4141955167
H                0.8181850373        0.0147801918        0.5858044833
H                0.7282176863        0.4115223408        0.4150210176
H                0.2717823137        0.5884776292        0.5849790124
H                0.4150210176        0.7282176863        0.4115223408
H                0.5849790124        0.2717823137        0.5884776292
H                0.4115223408        0.4150210176        0.7282176863
H                0.5884776292        0.5849790124        0.2717823137
H                0.7466952996        0.2170431753        0.3865948806
H                0.2533047004        0.7829568097        0.6134051194
H                0.3865948806        0.7466952996        0.2170431753
H                0.6134051194        0.2533047004        0.7829568097
H                0.2170431753        0.3865948806        0.7466952996
H                0.7829568097        0.6134051194        0.2533047004



     Writing config-only to output data dir ./iceII/iceII.save/ :
     XML data file
     NEW-OLD atomic charge density approx. for the potential

     negative rho (up, down):  1.683E-06 0.000E+00

     Writing all to output data dir ./iceII/iceII.save/ :
     XML data file, charge density, pseudopotentials, collected wavefunctions

     init_run     :      1.28s CPU      1.34s WALL (       1 calls)
     electrons    :    327.71s CPU    333.11s WALL (      50 calls)
     update_pot   :      1.46s CPU      1.57s WALL (      50 calls)
     forces       :      7.37s CPU      7.41s WALL (      50 calls)
     stress       :     49.39s CPU     49.45s WALL (      50 calls)

     Called by init_run:
     wfcinit      :      0.38s CPU      0.39s WALL (       1 calls)
     potinit      :      0.03s CPU      0.05s WALL (       1 calls)
     hinit0       :      0.68s CPU      0.68s WALL (       1 calls)

     Called by electrons:
     c_bands      :    276.74s CPU    279.26s WALL (     343 calls)
     sum_band     :     39.73s CPU     40.04s WALL (     343 calls)
     v_of_rho     :      8.62s CPU      8.82s WALL (     367 calls)
     newd         :      1.39s CPU      1.42s WALL (     367 calls)
     mix_rho      :      1.10s CPU      1.11s WALL (     343 calls)

     Called by c_bands:
     init_us_2    :      5.25s CPU      5.45s WALL (    3148 calls)
     cegterg      :    267.45s CPU    269.06s WALL (    1372 calls)

     Called by *egterg:
     cdiaghg      :     19.23s CPU     19.28s WALL (    4964 calls)
     h_psi        :    200.49s CPU    201.92s WALL (    5272 calls)
     s_psi        :      9.27s CPU      9.31s WALL (    5272 calls)
     g_psi        :      0.59s CPU      0.59s WALL (    3896 calls)

     Called by h_psi:
     h_psi:calbec :     14.68s CPU     14.77s WALL (    5272 calls)
     vloc_psi     :    175.30s CPU    176.61s WALL (    5272 calls)
     add_vuspsi   :      9.03s CPU      9.06s WALL (    5272 calls)

     General routines
     calbec       :     21.91s CPU     22.04s WALL (    7644 calls)
     fft          :      5.82s CPU      6.01s WALL (    4514 calls)
     ffts         :      0.42s CPU      0.43s WALL (     343 calls)
     fftw         :    183.04s CPU    184.41s WALL (  468988 calls)
     davcio       :      0.00s CPU      0.07s WALL (       4 calls)

     Parallel routines

     PWSCF        :   6m31.00s CPU   6m37.78s WALL


   This run was terminated on:  20:17: 1  31Mar2026            

=------------------------------------------------------------------------------=
   JOB DONE.
=------------------------------------------------------------------------------=
