
     Program PWSCF v.7.3.1 starts on 21Mar2026 at 20:53:58 

     This program is part of the open-source Quantum ESPRESSO suite
     for quantum simulation of materials; please cite
         "P. Giannozzi et al., J. Phys.:Condens. Matter 21 395502 (2009);
         "P. Giannozzi et al., J. Phys.:Condens. Matter 29 465901 (2017);
         "P. Giannozzi et al., J. Chem. Phys. 152 154105 (2020);
          URL http://www.quantum-espresso.org", 
     in publications or presentations arising from this work. More details at
     http://www.quantum-espresso.org/quote

     Parallel version (MPI), running on   128 processors

     MPI processes distributed on     1 nodes
     242858 MiB available memory on the printing compute node when the environment starts

     Waiting for input...
     Reading input from standard input

     Current dimensions of program PWSCF are:
     Max number of different atomic species (ntypx) = 10
     Max number of k-points (npk) =  40000
     Max angular momentum in pseudopotentials (lmaxx) =  4

     K-points division:     npool     =       4
     R & G space division:  proc/nbgrp/npool/nimage =      32
     Subspace diagonalization in iterative solution of the eigenvalue problem:
     a serial algorithm will be used


     Parallelization info
     --------------------
     sticks:   dense  smooth     PW     G-vecs:    dense   smooth      PW
     Min         194     194     56                 8420     8420    1325
     Max         195     195     57                 8422     8422    1327
     Sum        6211    6211   1815               269467   269467   42433

     Using Slab Decomposition



     bravais-lattice index     =            5
     lattice parameter (alat)  =      15.3490  a.u.
     unit-cell volume          =    2336.3032 (a.u.)^3
     number of atoms/cell      =           36
     number of atomic types    =            2
     number of electrons       =        96.00
     number of Kohn-Sham states=           48
     kinetic-energy cutoff     =      90.0000  Ry
     charge density cutoff     =     360.0000  Ry
     scf convergence threshold =      1.0E-07
     mixing beta               =       0.7000
     number of iterations used =            8  plain     mixing
     Exchange-correlation=  SLA  PW   PBE  PBE
                           (   1   4   3   4   0   0   0)

     celldm(1)=  15.348959  celldm(2)=   0.000000  celldm(3)=   0.000000
     celldm(4)=  -0.392337  celldm(5)=   0.000000  celldm(6)=   0.000000

     crystal axes: (cart. coord. in units of alat)
               a(1) = (   0.834367  -0.481722   0.267909 )  
               a(2) = (   0.000000   0.963444   0.267909 )  
               a(3) = (  -0.834367  -0.481722   0.267909 )  

     reciprocal axes: (cart. coord. in units 2 pi/alat)
               b(1) = (  0.599257 -0.345981  1.244203 )  
               b(2) = ( -0.000000  0.691962  1.244203 )  
               b(3) = ( -0.599257 -0.345981  1.244203 )  


     PseudoPot. # 1 for H  read from file:
     ./H.pbe-van_ak.UPF
     MD5 check sum: 077eb6d537518a38cb46c6de387227b7
     Pseudo is Ultrasoft, Zval =  1.0
     Generated by new atomic code, or converted to UPF format
     Using radial grid of  615 points,  1 beta functions with: 
                l(1) =   0
     Q(r) pseudized with  8 coefficients,  rinner =    0.800

     PseudoPot. # 2 for O  read from file:
     ./O.pbe-van_ak.UPF
     MD5 check sum: 78c19812648e8988a0fe644b0f25305e
     Pseudo is Ultrasoft, Zval =  6.0
     Generated by new atomic code, or converted to UPF format
     Using radial grid of  737 points,  4 beta functions with: 
                l(1) =   0
                l(2) =   0
                l(3) =   1
                l(4) =   1
     Q(r) pseudized with  8 coefficients,  rinner =    0.800   0.800   0.800


     atomic species   valence    mass     pseudopotential
     H                 1.00     1.00800     H ( 1.00)
     O                 6.00    16.00000     O ( 1.00)

      6 Sym. Ops., with inversion, found



   Cartesian axes

     site n.     atom                  positions (alat units)
         1        O      tau(   1) = (  -0.4847673  -0.5197781   0.3083633  )
         2        O      tau(   2) = (   0.4847673   0.5197782   0.4953638  )
         3        O      tau(   3) = (   0.6925247  -0.1599317   0.3083633  )
         4        O      tau(   4) = (  -0.6925248   0.1599317   0.4953638  )
         5        O      tau(   5) = (  -0.2077574   0.6797099   0.3083633  )
         6        O      tau(   6) = (   0.2077574  -0.6797099   0.4953638  )
         7        O      tau(   7) = (   0.1218176   0.3323883   0.4179381  )
         8        O      tau(   8) = (  -0.1218176  -0.3323883   0.3857890  )
         9        O      tau(   9) = (  -0.3487655  -0.0606970   0.4179381  )
        10        O      tau(  10) = (   0.3487655   0.0606970   0.3857890  )
        11        O      tau(  11) = (   0.2269479  -0.2716913   0.4179381  )
        12        O      tau(  12) = (  -0.2269479   0.2716912   0.3857890  )
        13        H      tau(  13) = (  -0.5381668  -0.4032014   0.2796970  )
        14        H      tau(  14) = (   0.5381668   0.4032014   0.5240301  )
        15        H      tau(  15) = (   0.6182661  -0.2644654   0.2796970  )
        16        H      tau(  16) = (  -0.6182661   0.2644654   0.5240301  )
        17        H      tau(  17) = (  -0.0800993   0.6676668   0.2796970  )
        18        H      tau(  18) = (   0.0800993  -0.6676668   0.5240301  )
        19        H      tau(  19) = (  -0.4872704  -0.4817221   0.4326731  )
        20        H      tau(  20) = (   0.4872704   0.4817221   0.3710540  )
        21        H      tau(  21) = (   0.6608188  -0.1811275   0.4326731  )
        22        H      tau(  22) = (  -0.6608188   0.1811275   0.3710540  )
        23        H      tau(  23) = (  -0.1735484   0.6628496   0.4326731  )
        24        H      tau(  24) = (   0.1735484  -0.6628496   0.3710540  )
        25        H      tau(  25) = (   0.2703349  -0.1502973   0.4058822  )
        26        H      tau(  26) = (  -0.2703350   0.1502973   0.3978449  )
        27        H      tau(  27) = (  -0.0050062   0.3092656   0.4058822  )
        28        H      tau(  28) = (   0.0050062  -0.3092656   0.3978449  )
        29        H      tau(  29) = (  -0.2653287  -0.1589683   0.4058822  )
        30        H      tau(  30) = (   0.2653287   0.1589683   0.3978449  )
        31        H      tau(  31) = (   0.3178939  -0.3347969   0.3493534  )
        32        H      tau(  32) = (  -0.3178939   0.3347969   0.4543737  )
        33        H      tau(  33) = (   0.1309957   0.4427026   0.3493534  )
        34        H      tau(  34) = (  -0.1309956  -0.4427026   0.4543737  )
        35        H      tau(  35) = (  -0.4488895  -0.1079057   0.3493534  )
        36        H      tau(  36) = (   0.4488895   0.1079057   0.4543737  )

     number of k points=    14
                       cart. coord. in units 2pi/alat
        k(    1) = (   0.0000000   0.0000000   0.0000000), wk =   0.0312500
        k(    2) = (  -0.1498141  -0.0864952   0.3110508), wk =   0.1875000
        k(    3) = (   0.2996283   0.1729905  -0.6221017), wk =   0.0937500
        k(    4) = (  -0.1498141   0.0864952   0.6221017), wk =   0.1875000
        k(    5) = (   0.2996283   0.3459809  -0.3110508), wk =   0.1875000
        k(    6) = (   0.1498141   0.2594857   0.0000000), wk =   0.1875000
        k(    7) = (   0.2996283  -0.1729905  -1.2442034), wk =   0.0937500
        k(    8) = (   0.0000000   0.0000000   0.9331525), wk =   0.0625000
        k(    9) = (   0.4494424   0.2594857   0.0000000), wk =   0.1875000
        k(   10) = (   0.2996283   0.1729905   0.3110508), wk =   0.1875000
        k(   11) = (   0.4494424  -0.2594857  -0.9331525), wk =   0.1875000
        k(   12) = (   0.2996283  -0.3459809  -0.6221017), wk =   0.1875000
        k(   13) = (   0.0000000   0.0000000  -1.8663050), wk =   0.0312500
        k(   14) = (   0.2996283  -0.3459809   0.3110508), wk =   0.1875000

     Dense  grid:   269467 G-vectors     FFT dimensions: (  96,  96,  96)

     Estimated max dynamical RAM per process >      17.44 MB

     Estimated total dynamical RAM >       1.99 GB

     Initial potential from superposition of free atoms

     starting charge      95.9998, renormalised to      96.0000
     Starting wfcs are   72 randomized atomic wfcs

     total cpu time spent up to now is        1.6 secs

     per-process dynamical memory:    21.1 Mb

     Self-consistent Calculation

     iteration #  1     ecut=    90.00 Ry     beta= 0.70
     Davidson diagonalization with overlap
     ethr =  1.00E-02,  avg # of iterations =  2.0

     total cpu time spent up to now is        2.5 secs

     total energy              =    -412.16690112 Ry
     estimated scf accuracy    <       3.60805569 Ry

     iteration #  2     ecut=    90.00 Ry     beta= 0.70
     Davidson diagonalization with overlap
     ethr =  3.76E-03,  avg # of iterations =  3.0

     total cpu time spent up to now is        3.6 secs

     total energy              =    -413.28786832 Ry
     estimated scf accuracy    <       2.75473639 Ry

     iteration #  3     ecut=    90.00 Ry     beta= 0.70
     Davidson diagonalization with overlap
     ethr =  2.87E-03,  avg # of iterations =  2.0

     negative rho (up, down):  8.847E-08 0.000E+00

     total cpu time spent up to now is        4.5 secs

     total energy              =    -413.62844778 Ry
     estimated scf accuracy    <       0.13018380 Ry

     iteration #  4     ecut=    90.00 Ry     beta= 0.70
     Davidson diagonalization with overlap
     ethr =  1.36E-04,  avg # of iterations =  4.0

     negative rho (up, down):  7.404E-07 0.000E+00

     total cpu time spent up to now is        5.8 secs

     total energy              =    -413.73039567 Ry
     estimated scf accuracy    <       0.14469973 Ry

     iteration #  5     ecut=    90.00 Ry     beta= 0.70
     Davidson diagonalization with overlap
     ethr =  1.36E-04,  avg # of iterations =  1.5

     negative rho (up, down):  1.295E-06 0.000E+00

     total cpu time spent up to now is        6.5 secs

     total energy              =    -413.73266307 Ry
     estimated scf accuracy    <       0.02567958 Ry

     iteration #  6     ecut=    90.00 Ry     beta= 0.70
     Davidson diagonalization with overlap
     ethr =  2.67E-05,  avg # of iterations =  2.0

     negative rho (up, down):  1.663E-06 0.000E+00

     total cpu time spent up to now is        7.3 secs

     total energy              =    -413.73452106 Ry
     estimated scf accuracy    <       0.00447712 Ry

     iteration #  7     ecut=    90.00 Ry     beta= 0.70
     Davidson diagonalization with overlap
     ethr =  4.66E-06,  avg # of iterations =  3.3

     negative rho (up, down):  1.722E-06 0.000E+00

     total cpu time spent up to now is        8.3 secs

     total energy              =    -413.73570346 Ry
     estimated scf accuracy    <       0.00008414 Ry

     iteration #  8     ecut=    90.00 Ry     beta= 0.70
     Davidson diagonalization with overlap
     ethr =  8.76E-08,  avg # of iterations =  6.0

     negative rho (up, down):  1.666E-06 0.000E+00

     total cpu time spent up to now is        9.8 secs

     total energy              =    -413.73580323 Ry
     estimated scf accuracy    <       0.00052098 Ry

     iteration #  9     ecut=    90.00 Ry     beta= 0.70
     Davidson diagonalization with overlap
     ethr =  8.76E-08,  avg # of iterations =  2.0

     negative rho (up, down):  1.532E-06 0.000E+00

     total cpu time spent up to now is       10.6 secs

     total energy              =    -413.73568215 Ry
     estimated scf accuracy    <       0.00030238 Ry

     iteration # 10     ecut=    90.00 Ry     beta= 0.70
     Davidson diagonalization with overlap
     ethr =  8.76E-08,  avg # of iterations =  3.0

     negative rho (up, down):  1.513E-06 0.000E+00

     total cpu time spent up to now is       11.7 secs

     total energy              =    -413.73572695 Ry
     estimated scf accuracy    <       0.00000794 Ry

     iteration # 11     ecut=    90.00 Ry     beta= 0.70
     Davidson diagonalization with overlap
     ethr =  8.28E-09,  avg # of iterations =  3.0

     negative rho (up, down):  1.510E-06 0.000E+00

     total cpu time spent up to now is       12.7 secs

     total energy              =    -413.73573014 Ry
     estimated scf accuracy    <       0.00000036 Ry

     iteration # 12     ecut=    90.00 Ry     beta= 0.70
     Davidson diagonalization with overlap
     ethr =  3.78E-10,  avg # of iterations =  5.0

     negative rho (up, down):  1.531E-06 0.000E+00

     total cpu time spent up to now is       14.0 secs

     total energy              =    -413.73573030 Ry
     estimated scf accuracy    <       0.00000046 Ry

     iteration # 13     ecut=    90.00 Ry     beta= 0.70
     Davidson diagonalization with overlap
     ethr =  3.78E-10,  avg # of iterations =  4.0

     negative rho (up, down):  1.526E-06 0.000E+00

     total cpu time spent up to now is       15.2 secs

     total energy              =    -413.73573044 Ry
     estimated scf accuracy    <       0.00000027 Ry

     iteration # 14     ecut=    90.00 Ry     beta= 0.70
     Davidson diagonalization with overlap
     ethr =  2.79E-10,  avg # of iterations =  2.0

     negative rho (up, down):  1.522E-06 0.000E+00

     total cpu time spent up to now is       15.9 secs

     End of self-consistent calculation

          k = 0.0000 0.0000 0.0000 ( 33745 PWs)   bands (ev):

   -20.8618 -20.5067 -20.5067 -20.3280 -20.3280 -20.3030 -20.3030 -20.2970
   -20.2905 -20.0551 -20.0551 -19.8080  -8.3369  -8.1624  -8.1033  -8.1033
    -8.0550  -8.0550  -7.6369  -7.4994  -7.4994  -7.2991  -7.2991  -7.1926
    -7.1283  -6.3782  -6.3782  -5.8687  -5.8687  -5.7784  -5.7784  -5.5266
    -5.3687  -4.7742  -4.7742  -4.1611  -3.3037  -3.3037  -3.2186  -3.1467
    -3.1092  -3.1092  -2.9816  -2.9815  -2.9815  -2.9638  -2.9238  -2.9238

          k =-0.1498-0.0865 0.3111 ( 33688 PWs)   bands (ev):

   -20.8036 -20.5395 -20.4981 -20.4413 -20.4200 -20.3630 -20.2505 -20.2157
   -20.1737 -20.0595 -20.0267 -19.8553  -8.2901  -8.2207  -8.1507  -8.1128
    -8.0350  -7.9794  -7.6260  -7.4663  -7.4614  -7.3307  -7.2280  -7.1935
    -7.0256  -6.5049  -6.3971  -6.1517  -5.8610  -5.7605  -5.6209  -5.4276
    -5.3739  -4.7674  -4.7100  -4.2857  -3.3953  -3.3356  -3.2366  -3.1852
    -3.1399  -3.1138  -3.0767  -3.0180  -2.9693  -2.9302  -2.9079  -2.8667

          k = 0.2996 0.1730-0.6221 ( 33640 PWs)   bands (ev):

   -20.6572 -20.6498 -20.5188 -20.5178 -20.4204 -20.4185 -20.2024 -20.2015
   -20.0653 -20.0608 -19.9730 -19.9656  -8.2728  -8.2201  -8.1429  -8.1278
    -8.0332  -7.9837  -7.5766  -7.4701  -7.4379  -7.3389  -7.1610  -7.1590
    -6.8263  -6.6999  -6.4475  -6.2905  -5.8695  -5.7945  -5.6240  -5.4807
    -5.0131  -4.8783  -4.6542  -4.4412  -3.4782  -3.3495  -3.2585  -3.2292
    -3.1711  -3.1577  -3.0796  -3.0337  -3.0091  -2.9004  -2.8925  -2.8272

          k =-0.1498 0.0865 0.6221 ( 33658 PWs)   bands (ev):

   -20.6867 -20.5799 -20.5747 -20.4816 -20.4616 -20.4092 -20.2103 -20.1463
   -20.1197 -20.0269 -20.0117 -19.9424  -8.2791  -8.1994  -8.1836  -8.0857
    -8.0526  -7.9734  -7.5833  -7.4969  -7.4556  -7.2574  -7.2007  -7.1555
    -6.8300  -6.6435  -6.5623  -6.1486  -5.9980  -5.8345  -5.5543  -5.3717
    -5.1818  -4.7362  -4.7148  -4.4481  -3.4607  -3.3839  -3.2482  -3.2090
    -3.1814  -3.1374  -3.1038  -3.0297  -3.0034  -2.9091  -2.8942  -2.8224

          k = 0.2996 0.3460-0.3111 ( 33681 PWs)   bands (ev):

   -20.7272 -20.6050 -20.5288 -20.4976 -20.4427 -20.3835 -20.2159 -20.1352
   -20.1220 -20.0600 -20.0071 -19.9218  -8.2831  -8.2629  -8.1277  -8.1088
    -8.0574  -7.9746  -7.6018  -7.5497  -7.4430  -7.2304  -7.2007  -7.1466
    -6.9391  -6.6828  -6.4718  -6.1587  -6.1322  -5.7003  -5.5278  -5.2906
    -5.0877  -4.8748  -4.6922  -4.4286  -3.3925  -3.3314  -3.2616  -3.1991
    -3.1560  -3.1146  -3.0597  -3.0544  -2.9866  -2.9477  -2.8982  -2.8138

          k = 0.1498 0.2595 0.0000 ( 33715 PWs)   bands (ev):

   -20.8194 -20.5618 -20.5195 -20.4183 -20.3947 -20.3298 -20.2670 -20.2097
   -20.1774 -20.0630 -20.0361 -19.8456  -8.3238  -8.2293  -8.1452  -8.1108
    -8.0091  -8.0027  -7.6623  -7.5467  -7.3874  -7.3037  -7.2543  -7.1669
    -7.1295  -6.4994  -6.3850  -6.1388  -6.0353  -5.6460  -5.5335  -5.4082
    -5.2504  -4.8372  -4.7486  -4.2531  -3.3033  -3.2895  -3.2477  -3.1692
    -3.1367  -3.1156  -3.0228  -3.0048  -2.9814  -2.9710  -2.8868  -2.8756

          k = 0.2996-0.1730-1.2442 ( 33696 PWs)   bands (ev):

   -20.7169 -20.6904 -20.5288 -20.4602 -20.3927 -20.3525 -20.2213 -20.1984
   -20.1040 -20.0910 -19.9489 -19.9370  -8.3048  -8.2736  -8.1604  -8.1276
    -7.9829  -7.9800  -7.6500  -7.5975  -7.3646  -7.3274  -7.1734  -7.1373
    -6.8975  -6.8516  -6.4451  -6.2333  -5.9519  -5.7603  -5.4314  -5.1875
    -5.0955  -5.0025  -4.6161  -4.4447  -3.3123  -3.2753  -3.2669  -3.1960
    -3.1369  -3.0966  -3.0718  -3.0148  -3.0042  -2.9711  -2.8593  -2.8443

          k = 0.0000 0.0000 0.9332 ( 33636 PWs)   bands (ev):

   -20.6423 -20.6423 -20.5817 -20.5480 -20.4111 -20.4111 -20.1555 -20.1555
   -20.0508 -20.0367 -20.0058 -20.0058  -8.2640  -8.2640  -8.1464  -8.0578
    -8.0578  -8.0348  -7.6080  -7.5225  -7.5225  -7.1516  -7.1516  -7.1207
    -6.7719  -6.7626  -6.7626  -6.1819  -5.9248  -5.9248  -5.3442  -5.1678
    -5.1678  -4.7507  -4.7507  -4.5852  -3.3449  -3.3449  -3.2400  -3.1979
    -3.1311  -3.1311  -3.0882  -3.0303  -3.0303  -2.9356  -2.9356  -2.7939

          k = 0.4494 0.2595 0.0000 ( 33675 PWs)   bands (ev):

   -20.7412 -20.6100 -20.6079 -20.4618 -20.3508 -20.3454 -20.2361 -20.2289
   -20.1048 -20.0338 -20.0081 -19.9133  -8.3014  -8.2626  -8.2077  -8.0730
    -8.0216  -7.9625  -7.6660  -7.5562  -7.4427  -7.2387  -7.1975  -7.1539
    -6.9820  -6.6548  -6.5857  -6.1881  -5.9773  -5.7514  -5.3492  -5.3131
    -5.1346  -4.8438  -4.7128  -4.4206  -3.2995  -3.2924  -3.2586  -3.1995
    -3.1525  -3.1057  -3.0446  -3.0259  -2.9871  -2.9518  -2.9019  -2.8291

          k = 0.2996 0.1730 0.3111 ( 33704 PWs)   bands (ev):

   -20.7643 -20.5734 -20.5069 -20.4887 -20.4202 -20.3756 -20.2266 -20.1997
   -20.1479 -20.0488 -20.0092 -19.8853  -8.3012  -8.2491  -8.1746  -8.0693
    -8.0607  -7.9377  -7.6321  -7.5266  -7.3681  -7.3051  -7.2683  -7.1869
    -6.9620  -6.5163  -6.3651  -6.2798  -6.0647  -5.7793  -5.5176  -5.3433
    -5.1836  -4.8364  -4.6958  -4.3287  -3.4087  -3.3390  -3.2780  -3.2289
    -3.1514  -3.1167  -3.0544  -3.0292  -2.9609  -2.9236  -2.8759  -2.8576

          k = 0.4494-0.2595-0.9332 ( 33702 PWs)   bands (ev):

   -20.6639 -20.6605 -20.5525 -20.5182 -20.4117 -20.3502 -20.2576 -20.1901
   -20.0796 -20.0343 -19.9959 -19.9318  -8.3269  -8.2396  -8.2034  -8.0734
    -8.0325  -7.9192  -7.6662  -7.4836  -7.3831  -7.3338  -7.2147  -7.1929
    -6.7467  -6.7080  -6.4313  -6.2859  -6.1210  -5.8555  -5.4820  -5.2303
    -4.9394  -4.9314  -4.7401  -4.3862  -3.4125  -3.3531  -3.3230  -3.2280
    -3.1988  -3.1288  -3.0146  -2.9947  -2.9735  -2.9358  -2.8771  -2.8281

          k = 0.2996-0.3460-0.6221 ( 33690 PWs)   bands (ev):

   -20.6307 -20.6242 -20.5443 -20.5418 -20.4351 -20.4335 -20.1907 -20.1888
   -20.0682 -20.0642 -19.9666 -19.9626  -8.3399  -8.1652  -8.1375  -8.1217
    -8.0910  -7.9243  -7.6058  -7.4893  -7.3704  -7.3259  -7.1997  -7.1947
    -6.7137  -6.5951  -6.4599  -6.3362  -6.0584  -6.0227  -5.4125  -5.3446
    -4.9502  -4.9060  -4.7629  -4.3719  -3.5057  -3.3649  -3.3222  -3.2607
    -3.2184  -3.1058  -3.0503  -3.0171  -3.0016  -2.8950  -2.8810  -2.8136

          k = 0.0000 0.0000-1.8663 ( 33714 PWs)   bands (ev):

   -20.6044 -20.6014 -20.5194 -20.5194 -20.5052 -20.5052 -20.1284 -20.1284
   -20.1151 -20.1151 -19.9544 -19.9540  -8.3808  -8.1371  -8.1371  -8.1122
    -8.1122  -7.8955  -7.6485  -7.4821  -7.2890  -7.2890  -7.2574  -7.2574
    -6.5721  -6.3810  -6.3655  -6.3655  -6.3276  -6.3276  -5.2227  -5.2227
    -4.9727  -4.9727  -4.7983  -4.3257  -3.5329  -3.3648  -3.3648  -3.2891
    -3.2891  -3.0619  -3.0428  -2.9691  -2.9691  -2.9057  -2.9057  -2.7926

          k = 0.2996-0.3460 0.3111 ( 33681 PWs)   bands (ev):

   -20.7269 -20.6066 -20.5242 -20.5020 -20.4407 -20.3842 -20.2154 -20.1406
   -20.1172 -20.0615 -20.0046 -19.9228  -8.2972  -8.2329  -8.1606  -8.1085
    -8.0271  -7.9839  -7.6402  -7.5244  -7.4202  -7.2618  -7.1720  -7.1641
    -6.9354  -6.6238  -6.5502  -6.2149  -5.9908  -5.7540  -5.6015  -5.2158
    -5.0740  -4.8585  -4.7488  -4.4127  -3.3984  -3.3082  -3.2772  -3.1957
    -3.1578  -3.1200  -3.0585  -3.0558  -3.0021  -2.9224  -2.8989  -2.8206

     highest occupied level (ev):    -2.7926

!    total energy              =    -413.73573040 Ry
     estimated scf accuracy    <       0.00000006 Ry

     The total energy is the sum of the following terms:
     one-electron contribution =    -306.10705033 Ry
     hartree contribution      =     185.58323671 Ry
     xc contribution           =    -100.16154115 Ry
     ewald contribution        =    -193.05037563 Ry

     convergence has been achieved in  14 iterations

     Forces acting on atoms (cartesian axes, Ry/au):

     atom    1 type  2   force =    -0.05492873    0.11974711    0.06895424
     atom    2 type  2   force =     0.05492873   -0.11974711   -0.06895424
     atom    3 type  2   force =    -0.07623968   -0.10744323    0.06895424
     atom    4 type  2   force =     0.07623968    0.10744323   -0.06895424
     atom    5 type  2   force =     0.13116840   -0.01230388    0.06895424
     atom    6 type  2   force =    -0.13116840    0.01230388   -0.06895424
     atom    7 type  2   force =    -0.07662801    0.05485199   -0.05034898
     atom    8 type  2   force =     0.07662801   -0.05485199    0.05034898
     atom    9 type  2   force =    -0.00918921   -0.09378780   -0.05034898
     atom   10 type  2   force =     0.00918921    0.09378780    0.05034898
     atom   11 type  2   force =     0.08581722    0.03893581   -0.05034898
     atom   12 type  2   force =    -0.08581722   -0.03893581    0.05034898
     atom   13 type  1   force =     0.02483876   -0.07145454   -0.03153529
     atom   14 type  1   force =    -0.02483876    0.07145454    0.03153529
     atom   15 type  1   force =     0.04946207    0.05723827   -0.03153529
     atom   16 type  1   force =    -0.04946207   -0.05723827    0.03153529
     atom   17 type  1   force =    -0.07430083    0.01421627   -0.03153529
     atom   18 type  1   force =     0.07430083   -0.01421627    0.03153529
     atom   19 type  1   force =     0.02666583   -0.05440944   -0.04637032
     atom   20 type  1   force =    -0.02666583    0.05440944    0.04637032
     atom   21 type  1   force =     0.03378704    0.05029801   -0.04637032
     atom   22 type  1   force =    -0.03378704   -0.05029801    0.04637032
     atom   23 type  1   force =    -0.06045287    0.00411144   -0.04637032
     atom   24 type  1   force =     0.06045287   -0.00411144    0.04637032
     atom   25 type  1   force =    -0.02920014   -0.05756757    0.01514719
     atom   26 type  1   force =     0.02920014    0.05756757   -0.01514719
     atom   27 type  1   force =     0.06445505    0.00349572    0.01514719
     atom   28 type  1   force =    -0.06445505   -0.00349572   -0.01514719
     atom   29 type  1   force =    -0.03525491    0.05407185    0.01514719
     atom   30 type  1   force =     0.03525491   -0.05407185   -0.01514719
     atom   31 type  1   force =    -0.06484340    0.02252159    0.04457644
     atom   32 type  1   force =     0.06484340   -0.02252159   -0.04457644
     atom   33 type  1   force =     0.01291743   -0.06741683    0.04457644
     atom   34 type  1   force =    -0.01291743    0.06741683   -0.04457644
     atom   35 type  1   force =     0.05192597    0.04489524    0.04457644
     atom   36 type  1   force =    -0.05192597   -0.04489524   -0.04457644

     Total force =     0.585632     Total SCF correction =     0.000296


     Computing stress (Cartesian axis) and pressure

          total   stress  (Ry/bohr**3)                   (kbar)     P=      -97.56
  -0.00074259  -0.00000000  -0.00000000         -109.24       -0.00       -0.00
   0.00000000  -0.00074259  -0.00000000            0.00     -109.24       -0.00
   0.00000000  -0.00000000  -0.00050437            0.00       -0.00      -74.20


     Writing all to output data dir ./iceII/iceII.save/ :
     XML data file, charge density, pseudopotentials, collected wavefunctions

     init_run     :      1.28s CPU      1.35s WALL (       1 calls)
     electrons    :     14.15s CPU     14.43s WALL (       1 calls)
     forces       :      0.15s CPU      0.16s WALL (       1 calls)
     stress       :      0.97s CPU      1.01s WALL (       1 calls)

     Called by init_run:
     wfcinit      :      0.36s CPU      0.38s WALL (       1 calls)
     potinit      :      0.05s CPU      0.07s WALL (       1 calls)
     hinit0       :      0.66s CPU      0.68s WALL (       1 calls)

     Called by electrons:
     c_bands      :     11.90s CPU     12.07s WALL (      14 calls)
     sum_band     :      1.64s CPU      1.65s WALL (      14 calls)
     v_of_rho     :      0.39s CPU      0.42s WALL (      15 calls)
     newd         :      0.11s CPU      0.12s WALL (      15 calls)
     mix_rho      :      0.06s CPU      0.07s WALL (      14 calls)

     Called by c_bands:
     init_us_2    :      0.20s CPU      0.21s WALL (     124 calls)
     cegterg      :     11.52s CPU     11.66s WALL (      56 calls)

     Called by *egterg:
     cdiaghg      :      0.87s CPU      0.87s WALL (     226 calls)
     h_psi        :      8.84s CPU      8.93s WALL (     230 calls)
     s_psi        :      0.39s CPU      0.41s WALL (     230 calls)
     g_psi        :      0.02s CPU      0.02s WALL (     170 calls)

     Called by h_psi:
     h_psi:calbec :      0.66s CPU      0.67s WALL (     230 calls)
     vloc_psi     :      7.71s CPU      7.77s WALL (     230 calls)
     add_vuspsi   :      0.41s CPU      0.41s WALL (     230 calls)

     General routines
     calbec       :      0.89s CPU      0.91s WALL (     306 calls)
     fft          :      0.89s CPU      0.93s WALL (     173 calls)
     ffts         :      0.03s CPU      0.03s WALL (      14 calls)
     fftw         :      7.99s CPU      8.05s WALL (   20446 calls)

     Parallel routines

     PWSCF        :     16.85s CPU     17.71s WALL


   This run was terminated on:  20:54:16  21Mar2026            

=------------------------------------------------------------------------------=
   JOB DONE.
=------------------------------------------------------------------------------=
