
     Program PWSCF v.7.3.1 starts on 31Mar2026 at 20:23:48 

     This program is part of the open-source Quantum ESPRESSO suite
     for quantum simulation of materials; please cite
         "P. Giannozzi et al., J. Phys.:Condens. Matter 21 395502 (2009);
         "P. Giannozzi et al., J. Phys.:Condens. Matter 29 465901 (2017);
         "P. Giannozzi et al., J. Chem. Phys. 152 154105 (2020);
          URL http://www.quantum-espresso.org", 
     in publications or presentations arising from this work. More details at
     http://www.quantum-espresso.org/quote

     Parallel version (MPI), running on   128 processors

     MPI processes distributed on     1 nodes
     498358 MiB available memory on the printing compute node when the environment starts

     Waiting for input...
     Reading input from standard input

     Current dimensions of program PWSCF are:
     Max number of different atomic species (ntypx) = 10
     Max number of k-points (npk) =  40000
     Max angular momentum in pseudopotentials (lmaxx) =  4

     File ./iceII/iceII.update deleted, as requested

     File ./iceII/iceII.bfgs deleted, as requested

     K-points division:     npool     =       4
     R & G space division:  proc/nbgrp/npool/nimage =      32
     Subspace diagonalization in iterative solution of the eigenvalue problem:
     a serial algorithm will be used


     Parallelization info
     --------------------
     sticks:   dense  smooth     PW     G-vecs:    dense   smooth      PW
     Min         195     195     57                 8518     8518    1343
     Max         196     196     58                 8521     8521    1345
     Sum        6263    6263   1831               272641   272641   43009

     Using Slab Decomposition



     bravais-lattice index     =            5
     lattice parameter (alat)  =      15.4078  a.u.
     unit-cell volume          =    2363.2602 (a.u.)^3
     number of atoms/cell      =           36
     number of atomic types    =            2
     number of electrons       =        96.00
     number of Kohn-Sham states=           48
     kinetic-energy cutoff     =      90.0000  Ry
     charge density cutoff     =     360.0000  Ry
     scf convergence threshold =      1.0E-07
     mixing beta               =       0.7000
     number of iterations used =            8  plain     mixing
     energy convergence thresh.=      1.0E-04
     force convergence thresh. =      1.0E-04
     Exchange-correlation=  SLA  PW   PBE  PBE
                           (   1   4   3   4   0   0   0)
     nstep                     =           50


     celldm(1)=  15.407767  celldm(2)=   0.000000  celldm(3)=   0.000000
     celldm(4)=  -0.392337  celldm(5)=   0.000000  celldm(6)=   0.000000

     crystal axes: (cart. coord. in units of alat)
               a(1) = (   0.834367  -0.481722   0.267909 )  
               a(2) = (   0.000000   0.963444   0.267909 )  
               a(3) = (  -0.834367  -0.481722   0.267909 )  

     reciprocal axes: (cart. coord. in units 2 pi/alat)
               b(1) = (  0.599257 -0.345981  1.244203 )  
               b(2) = (  0.000000  0.691962  1.244203 )  
               b(3) = ( -0.599257 -0.345981  1.244203 )  


     PseudoPot. # 1 for H  read from file:
     ./H.pbe-van_ak.UPF
     MD5 check sum: 077eb6d537518a38cb46c6de387227b7
     Pseudo is Ultrasoft, Zval =  1.0
     Generated by new atomic code, or converted to UPF format
     Using radial grid of  615 points,  1 beta functions with: 
                l(1) =   0
     Q(r) pseudized with  8 coefficients,  rinner =    0.800

     PseudoPot. # 2 for O  read from file:
     ./O.pbe-van_ak.UPF
     MD5 check sum: 78c19812648e8988a0fe644b0f25305e
     Pseudo is Ultrasoft, Zval =  6.0
     Generated by new atomic code, or converted to UPF format
     Using radial grid of  737 points,  4 beta functions with: 
                l(1) =   0
                l(2) =   0
                l(3) =   1
                l(4) =   1
     Q(r) pseudized with  8 coefficients,  rinner =    0.800   0.800   0.800


     atomic species   valence    mass     pseudopotential
     H                 1.00     1.00800     H ( 1.00)
     O                 6.00    16.00000     O ( 1.00)

      6 Sym. Ops., with inversion, found



   Cartesian axes

     site n.     atom                  positions (alat units)
         1        O      tau(   1) = (  -0.4847673  -0.5197781   0.3083633  )
         2        O      tau(   2) = (   0.4847673   0.5197782   0.4953638  )
         3        O      tau(   3) = (   0.6925247  -0.1599317   0.3083633  )
         4        O      tau(   4) = (  -0.6925248   0.1599317   0.4953638  )
         5        O      tau(   5) = (  -0.2077574   0.6797099   0.3083633  )
         6        O      tau(   6) = (   0.2077574  -0.6797099   0.4953638  )
         7        O      tau(   7) = (   0.1218176   0.3323883   0.4179381  )
         8        O      tau(   8) = (  -0.1218176  -0.3323883   0.3857890  )
         9        O      tau(   9) = (  -0.3487655  -0.0606970   0.4179381  )
        10        O      tau(  10) = (   0.3487655   0.0606970   0.3857890  )
        11        O      tau(  11) = (   0.2269479  -0.2716913   0.4179381  )
        12        O      tau(  12) = (  -0.2269479   0.2716912   0.3857890  )
        13        H      tau(  13) = (  -0.5381668  -0.4032014   0.2796970  )
        14        H      tau(  14) = (   0.5381668   0.4032014   0.5240301  )
        15        H      tau(  15) = (   0.6182661  -0.2644654   0.2796970  )
        16        H      tau(  16) = (  -0.6182661   0.2644654   0.5240301  )
        17        H      tau(  17) = (  -0.0800993   0.6676668   0.2796970  )
        18        H      tau(  18) = (   0.0800993  -0.6676668   0.5240301  )
        19        H      tau(  19) = (  -0.4872704  -0.4817221   0.4326731  )
        20        H      tau(  20) = (   0.4872704   0.4817221   0.3710540  )
        21        H      tau(  21) = (   0.6608188  -0.1811275   0.4326731  )
        22        H      tau(  22) = (  -0.6608188   0.1811275   0.3710540  )
        23        H      tau(  23) = (  -0.1735484   0.6628496   0.4326731  )
        24        H      tau(  24) = (   0.1735484  -0.6628496   0.3710540  )
        25        H      tau(  25) = (   0.2703349  -0.1502973   0.4058822  )
        26        H      tau(  26) = (  -0.2703350   0.1502973   0.3978449  )
        27        H      tau(  27) = (  -0.0050062   0.3092656   0.4058822  )
        28        H      tau(  28) = (   0.0050062  -0.3092656   0.3978449  )
        29        H      tau(  29) = (  -0.2653287  -0.1589683   0.4058822  )
        30        H      tau(  30) = (   0.2653287   0.1589683   0.3978449  )
        31        H      tau(  31) = (   0.3178939  -0.3347969   0.3493534  )
        32        H      tau(  32) = (  -0.3178939   0.3347969   0.4543737  )
        33        H      tau(  33) = (   0.1309957   0.4427026   0.3493534  )
        34        H      tau(  34) = (  -0.1309956  -0.4427026   0.4543737  )
        35        H      tau(  35) = (  -0.4488895  -0.1079057   0.3493534  )
        36        H      tau(  36) = (   0.4488895   0.1079057   0.4543737  )

     number of k points=    14
                       cart. coord. in units 2pi/alat
        k(    1) = (   0.0000000   0.0000000   0.0000000), wk =   0.0312500
        k(    2) = (  -0.1498141  -0.0864952   0.3110508), wk =   0.1875000
        k(    3) = (   0.2996283   0.1729905  -0.6221017), wk =   0.0937500
        k(    4) = (  -0.1498141   0.0864952   0.6221017), wk =   0.1875000
        k(    5) = (   0.2996283   0.3459809  -0.3110508), wk =   0.1875000
        k(    6) = (   0.1498141   0.2594857   0.0000000), wk =   0.1875000
        k(    7) = (   0.2996283  -0.1729905  -1.2442034), wk =   0.0937500
        k(    8) = (   0.0000000   0.0000000   0.9331525), wk =   0.0625000
        k(    9) = (   0.4494424   0.2594857   0.0000000), wk =   0.1875000
        k(   10) = (   0.2996283   0.1729905   0.3110508), wk =   0.1875000
        k(   11) = (   0.4494424  -0.2594857  -0.9331525), wk =   0.1875000
        k(   12) = (   0.2996283  -0.3459809  -0.6221017), wk =   0.1875000
        k(   13) = (   0.0000000   0.0000000  -1.8663050), wk =   0.0312500
        k(   14) = (   0.2996283  -0.3459809   0.3110508), wk =   0.1875000

     Dense  grid:   272641 G-vectors     FFT dimensions: (  96,  96,  96)

     Estimated max dynamical RAM per process >      17.60 MB

     Estimated total dynamical RAM >       2.01 GB

     Initial potential from superposition of free atoms

     starting charge      95.9998, renormalised to      96.0000
     Starting wfcs are   72 randomized atomic wfcs

     total cpu time spent up to now is        1.6 secs

     per-process dynamical memory:    21.9 Mb

     Self-consistent Calculation

     iteration #  1     ecut=    90.00 Ry     beta= 0.70
     Davidson diagonalization with overlap
     ethr =  1.00E-02,  avg # of iterations =  2.0

     total cpu time spent up to now is        2.5 secs

     total energy              =    -412.14754713 Ry
     estimated scf accuracy    <       3.60019978 Ry

     iteration #  2     ecut=    90.00 Ry     beta= 0.70
     Davidson diagonalization with overlap
     ethr =  3.75E-03,  avg # of iterations =  3.0

     total cpu time spent up to now is        3.6 secs

     total energy              =    -413.26487972 Ry
     estimated scf accuracy    <       2.79170053 Ry

     iteration #  3     ecut=    90.00 Ry     beta= 0.70
     Davidson diagonalization with overlap
     ethr =  2.91E-03,  avg # of iterations =  2.0

     negative rho (up, down):  1.882E-07 0.000E+00

     total cpu time spent up to now is        4.5 secs

     total energy              =    -413.60824042 Ry
     estimated scf accuracy    <       0.13347073 Ry

     iteration #  4     ecut=    90.00 Ry     beta= 0.70
     Davidson diagonalization with overlap
     ethr =  1.39E-04,  avg # of iterations =  4.0

     negative rho (up, down):  3.899E-07 0.000E+00

     total cpu time spent up to now is        5.8 secs

     total energy              =    -413.71273251 Ry
     estimated scf accuracy    <       0.14687491 Ry

     iteration #  5     ecut=    90.00 Ry     beta= 0.70
     Davidson diagonalization with overlap
     ethr =  1.39E-04,  avg # of iterations =  1.3

     negative rho (up, down):  5.352E-07 0.000E+00

     total cpu time spent up to now is        6.5 secs

     total energy              =    -413.71487978 Ry
     estimated scf accuracy    <       0.02635083 Ry

     iteration #  6     ecut=    90.00 Ry     beta= 0.70
     Davidson diagonalization with overlap
     ethr =  2.74E-05,  avg # of iterations =  2.0

     negative rho (up, down):  6.239E-07 0.000E+00

     total cpu time spent up to now is        7.4 secs

     total energy              =    -413.71679424 Ry
     estimated scf accuracy    <       0.00458013 Ry

     iteration #  7     ecut=    90.00 Ry     beta= 0.70
     Davidson diagonalization with overlap
     ethr =  4.77E-06,  avg # of iterations =  3.2

     negative rho (up, down):  6.435E-07 0.000E+00

     total cpu time spent up to now is        8.4 secs

     total energy              =    -413.71799013 Ry
     estimated scf accuracy    <       0.00008744 Ry

     iteration #  8     ecut=    90.00 Ry     beta= 0.70
     Davidson diagonalization with overlap
     ethr =  9.11E-08,  avg # of iterations =  6.0

     negative rho (up, down):  6.239E-07 0.000E+00

     total cpu time spent up to now is        9.9 secs

     total energy              =    -413.71809216 Ry
     estimated scf accuracy    <       0.00053607 Ry

     iteration #  9     ecut=    90.00 Ry     beta= 0.70
     Davidson diagonalization with overlap
     ethr =  9.11E-08,  avg # of iterations =  2.0

     negative rho (up, down):  5.921E-07 0.000E+00

     total cpu time spent up to now is       10.7 secs

     total energy              =    -413.71797062 Ry
     estimated scf accuracy    <       0.00030019 Ry

     iteration # 10     ecut=    90.00 Ry     beta= 0.70
     Davidson diagonalization with overlap
     ethr =  9.11E-08,  avg # of iterations =  3.0

     negative rho (up, down):  5.885E-07 0.000E+00

     total cpu time spent up to now is       11.8 secs

     total energy              =    -413.71801934 Ry
     estimated scf accuracy    <       0.00000567 Ry

     iteration # 11     ecut=    90.00 Ry     beta= 0.70
     Davidson diagonalization with overlap
     ethr =  5.90E-09,  avg # of iterations =  4.9

     negative rho (up, down):  5.870E-07 0.000E+00

     total cpu time spent up to now is       13.0 secs

     total energy              =    -413.71802249 Ry
     estimated scf accuracy    <       0.00000033 Ry

     iteration # 12     ecut=    90.00 Ry     beta= 0.70
     Davidson diagonalization with overlap
     ethr =  3.48E-10,  avg # of iterations =  5.0

     negative rho (up, down):  5.910E-07 0.000E+00

     total cpu time spent up to now is       14.2 secs

     total energy              =    -413.71802236 Ry
     estimated scf accuracy    <       0.00000088 Ry

     iteration # 13     ecut=    90.00 Ry     beta= 0.70
     Davidson diagonalization with overlap
     ethr =  3.48E-10,  avg # of iterations =  3.0

     negative rho (up, down):  5.914E-07 0.000E+00

     total cpu time spent up to now is       15.3 secs

     End of self-consistent calculation

          k = 0.0000 0.0000 0.0000 ( 34105 PWs)   bands (ev):

   -20.8612 -20.5146 -20.5146 -20.3395 -20.3395 -20.3149 -20.3149 -20.3096
   -20.3028 -20.0728 -20.0728 -19.8312  -8.3463  -8.1739  -8.1150  -8.1150
    -8.0692  -8.0692  -7.6517  -7.5150  -7.5150  -7.3164  -7.3164  -7.2121
    -7.1479  -6.4105  -6.4105  -5.9076  -5.9076  -5.8161  -5.8161  -5.5687
    -5.4129  -4.8229  -4.8229  -4.2148  -3.3440  -3.3440  -3.2598  -3.1888
    -3.1522  -3.1522  -3.0274  -3.0256  -3.0256  -3.0096  -2.9705  -2.9705

          k =-0.1498-0.0865 0.3111 ( 34065 PWs)   bands (ev):

   -20.8044 -20.5467 -20.5064 -20.4503 -20.4293 -20.3737 -20.2638 -20.2296
   -20.1887 -20.0770 -20.0450 -19.8774  -8.3002  -8.2317  -8.1624  -8.1252
    -8.0491  -7.9941  -7.6400  -7.4819  -7.4778  -7.3478  -7.2471  -7.2128
    -7.0479  -6.5353  -6.4295  -6.1862  -5.8981  -5.8009  -5.6614  -5.4708
    -5.4172  -4.8164  -4.7594  -4.3386  -3.4335  -3.3749  -3.2774  -3.2268
    -3.1823  -3.1569  -3.1204  -3.0621  -3.0148  -2.9756  -2.9544  -2.9138

          k = 0.2996 0.1730-0.6221 ( 34070 PWs)   bands (ev):

   -20.6619 -20.6536 -20.5261 -20.5258 -20.4301 -20.4276 -20.2163 -20.2162
   -20.0831 -20.0779 -19.9920 -19.9857  -8.2834  -8.2312  -8.1548  -8.1401
    -8.0468  -7.9984  -7.5910  -7.4859  -7.4544  -7.3558  -7.1814  -7.1794
    -6.8524  -6.7274  -6.4795  -6.3228  -5.9074  -5.8332  -5.6650  -5.5231
    -5.0611  -4.9254  -4.7041  -4.4926  -3.5145  -3.3883  -3.2991  -3.2697
    -3.2129  -3.2000  -3.1231  -3.0785  -3.0533  -2.9467  -2.9388  -2.8748

          k =-0.1498 0.0865 0.6221 ( 34086 PWs)   bands (ev):

   -20.6902 -20.5859 -20.5810 -20.4900 -20.4702 -20.4189 -20.2245 -20.1619
   -20.1358 -20.0452 -20.0302 -19.9627  -8.2896  -8.2107  -8.1952  -8.0980
    -8.0663  -7.9884  -7.5977  -7.5119  -7.4714  -7.2761  -7.2204  -7.1758
    -6.8560  -6.6719  -6.5922  -6.1832  -6.0345  -5.8728  -5.5960  -5.4156
    -5.2269  -4.7858  -4.7641  -4.4990  -3.4974  -3.4219  -3.2890  -3.2502
    -3.2231  -3.1798  -3.1471  -3.0739  -3.0481  -2.9553  -2.9404  -2.8702

          k = 0.2996 0.3460-0.3111 ( 34081 PWs)   bands (ev):

   -20.7297 -20.6103 -20.5367 -20.5048 -20.4520 -20.3938 -20.2301 -20.1513
   -20.1374 -20.0779 -20.0256 -19.9425  -8.2933  -8.2735  -8.1399  -8.1215
    -8.0707  -7.9889  -7.6151  -7.5637  -7.4588  -7.2496  -7.2201  -7.1672
    -6.9636  -6.7115  -6.5030  -6.1923  -6.1670  -5.7412  -5.5701  -5.3350
    -5.1342  -4.9226  -4.7416  -4.4801  -3.4309  -3.3706  -3.3021  -3.2403
    -3.1981  -3.1576  -3.1034  -3.0982  -3.0320  -2.9932  -2.9446  -2.8618

          k = 0.1498 0.2595 0.0000 ( 34077 PWs)   bands (ev):

   -20.8198 -20.5682 -20.5270 -20.4281 -20.4049 -20.3414 -20.2799 -20.2239
   -20.1922 -20.0805 -20.0543 -19.8679  -8.3334  -8.2398  -8.1571  -8.1235
    -8.0232  -8.0167  -7.6747  -7.5610  -7.4044  -7.3211  -7.2732  -7.1878
    -7.1494  -6.5307  -6.4179  -6.1728  -6.0702  -5.6871  -5.5764  -5.4513
    -5.2955  -4.8853  -4.7972  -4.3066  -3.3435  -3.3301  -3.2884  -3.2107
    -3.1789  -3.1582  -3.0675  -3.0491  -3.0269  -3.0162  -2.9337  -2.9227

          k = 0.2996-0.1730-1.2442 ( 34078 PWs)   bands (ev):

   -20.7194 -20.6938 -20.5358 -20.4693 -20.4028 -20.3640 -20.2350 -20.2131
   -20.1204 -20.1079 -19.9689 -19.9574  -8.3146  -8.2840  -8.1725  -8.1400
    -7.9975  -7.9940  -7.6615  -7.6106  -7.3809  -7.3448  -7.1930  -7.1576
    -6.9243  -6.8781  -6.4770  -6.2660  -5.9876  -5.8008  -5.4762  -5.2333
    -5.1428  -5.0476  -4.6663  -4.4962  -3.3518  -3.3159  -3.3081  -3.2369
    -3.1789  -3.1400  -3.1150  -3.0593  -3.0488  -3.0167  -2.9068  -2.8918

          k = 0.0000 0.0000 0.9332 ( 34071 PWs)   bands (ev):

   -20.6467 -20.6467 -20.5880 -20.5544 -20.4212 -20.4212 -20.1709 -20.1709
   -20.0677 -20.0556 -20.0244 -20.0244  -8.2746  -8.2746  -8.1588  -8.0712
    -8.0712  -8.0473  -7.6210  -7.5370  -7.5370  -7.1719  -7.1719  -7.1417
    -6.7996  -6.7896  -6.7896  -6.2152  -5.9627  -5.9627  -5.3892  -5.2133
    -5.2133  -4.7995  -4.7995  -4.6345  -3.3842  -3.3842  -3.2808  -3.2401
    -3.1735  -3.1735  -3.1316  -3.0745  -3.0745  -2.9813  -2.9813  -2.8423

          k = 0.4494 0.2595 0.0000 ( 34085 PWs)   bands (ev):

   -20.7433 -20.6150 -20.6132 -20.4709 -20.3622 -20.3567 -20.2499 -20.2425
   -20.1212 -20.0520 -20.0269 -19.9342  -8.3114  -8.2730  -8.2191  -8.0862
    -8.0355  -7.9769  -7.6774  -7.5700  -7.4579  -7.2573  -7.2171  -7.1738
    -7.0070  -6.6842  -6.6157  -6.2210  -6.0140  -5.7916  -5.3934  -5.3577
    -5.1815  -4.8917  -4.7616  -4.4724  -3.3395  -3.3324  -3.3002  -3.2404
    -3.1945  -3.1487  -3.0883  -3.0700  -3.0323  -2.9977  -2.9487  -2.8769

          k = 0.2996 0.1730 0.3111 ( 34062 PWs)   bands (ev):

   -20.7660 -20.5798 -20.5150 -20.4965 -20.4296 -20.3860 -20.2405 -20.2139
   -20.1636 -20.0665 -20.0280 -19.9068  -8.3112  -8.2597  -8.1860  -8.0829
    -8.0736  -7.9532  -7.6449  -7.5414  -7.3848  -7.3228  -7.2867  -7.2067
    -6.9860  -6.5473  -6.3981  -6.3125  -6.0988  -5.8190  -5.5601  -5.3880
    -5.2283  -4.8856  -4.7448  -4.3814  -3.4469  -3.3779  -3.3180  -3.2693
    -3.1935  -3.1594  -3.0982  -3.0736  -3.0067  -2.9697  -2.9229  -2.9044

          k = 0.4494-0.2595-0.9332 ( 34060 PWs)   bands (ev):

   -20.6682 -20.6644 -20.5589 -20.5261 -20.4213 -20.3610 -20.2709 -20.2047
   -20.0968 -20.0523 -20.0149 -19.9523  -8.3367  -8.2505  -8.2147  -8.0866
    -8.0462  -7.9347  -7.6781  -7.4983  -7.3995  -7.3508  -7.2340  -7.2127
    -6.7748  -6.7361  -6.4633  -6.3182  -6.1553  -5.8941  -5.5251  -5.2759
    -4.9875  -4.9796  -4.7892  -4.4378  -3.4510  -3.3914  -3.3619  -3.2684
    -3.2396  -3.1711  -3.0593  -3.0396  -3.0193  -2.9818  -2.9240  -2.8755

          k = 0.2996-0.3460-0.6221 ( 34086 PWs)   bands (ev):

   -20.6363 -20.6286 -20.5510 -20.5490 -20.4442 -20.4423 -20.2050 -20.2037
   -20.0856 -20.0817 -19.9856 -19.9830  -8.3497  -8.1771  -8.1497  -8.1341
    -8.1037  -7.9399  -7.6198  -7.5037  -7.3877  -7.3432  -7.2194  -7.2144
    -6.7420  -6.6242  -6.4914  -6.3679  -6.0942  -6.0583  -5.4567  -5.3891
    -4.9976  -4.9532  -4.8129  -4.4238  -3.5418  -3.4031  -3.3613  -3.3004
    -3.2592  -3.1489  -3.0942  -3.0616  -3.0467  -2.9416  -2.9277  -2.8613

          k = 0.0000 0.0000-1.8663 ( 34092 PWs)   bands (ev):

   -20.6113 -20.6065 -20.5272 -20.5272 -20.5119 -20.5119 -20.1436 -20.1436
   -20.1322 -20.1322 -19.9747 -19.9736  -8.3900  -8.1497  -8.1497  -8.1245
    -8.1245  -7.9114  -7.6618  -7.4962  -7.3074  -7.3074  -7.2757  -7.2757
    -6.6033  -6.4112  -6.3992  -6.3992  -6.3589  -6.3589  -5.2694  -5.2694
    -5.0185  -5.0185  -4.8501  -4.3778  -3.5685  -3.4028  -3.4028  -3.3282
    -3.3282  -3.1059  -3.0865  -3.0149  -3.0149  -2.9519  -2.9519  -2.8407

          k = 0.2996-0.3460 0.3111 ( 34081 PWs)   bands (ev):

   -20.7294 -20.6122 -20.5311 -20.5099 -20.4502 -20.3944 -20.2295 -20.1559
   -20.1341 -20.0785 -20.0235 -19.9434  -8.3073  -8.2439  -8.1724  -8.1214
    -8.0402  -7.9985  -7.6528  -7.5390  -7.4361  -7.2804  -7.1920  -7.1844
    -6.9601  -6.6533  -6.5800  -6.2489  -6.0260  -5.7942  -5.6431  -5.2614
    -5.1211  -4.9060  -4.7972  -4.4645  -3.4367  -3.3478  -3.3176  -3.2369
    -3.1996  -3.1629  -3.1025  -3.0992  -3.0473  -2.9684  -2.9452  -2.8685

     highest occupied level (ev):    -2.8407

!    total energy              =    -413.71802247 Ry
     estimated scf accuracy    <       0.00000005 Ry

     The total energy is the sum of the following terms:
     one-electron contribution =    -307.42280237 Ry
     hartree contribution      =     186.08674265 Ry
     xc contribution           =    -100.06842062 Ry
     ewald contribution        =    -192.31354214 Ry

     convergence has been achieved in  13 iterations

     Forces acting on atoms (cartesian axes, Ry/au):

     atom    1 type  2   force =    -0.05643643    0.12396639    0.07185696
     atom    2 type  2   force =     0.05643643   -0.12396639   -0.07185696
     atom    3 type  2   force =    -0.07913982   -0.11085858    0.07185696
     atom    4 type  2   force =     0.07913982    0.11085858   -0.07185696
     atom    5 type  2   force =     0.13557626   -0.01310781    0.07185696
     atom    6 type  2   force =    -0.13557626    0.01310781   -0.07185696
     atom    7 type  2   force =    -0.08008886    0.05710551   -0.05260020
     atom    8 type  2   force =     0.08008886   -0.05710551    0.05260020
     atom    9 type  2   force =    -0.00941039   -0.09791174   -0.05260020
     atom   10 type  2   force =     0.00941039    0.09791174    0.05260020
     atom   11 type  2   force =     0.08949925    0.04080623   -0.05260020
     atom   12 type  2   force =    -0.08949925   -0.04080623    0.05260020
     atom   13 type  1   force =     0.02649965   -0.07497053   -0.02996264
     atom   14 type  1   force =    -0.02649965    0.07497053    0.02996264
     atom   15 type  1   force =     0.05167655    0.06043464   -0.02996264
     atom   16 type  1   force =    -0.05167655   -0.06043464    0.02996264
     atom   17 type  1   force =    -0.07817621    0.01453589   -0.02996264
     atom   18 type  1   force =     0.07817621   -0.01453589    0.02996264
     atom   19 type  1   force =     0.02641437   -0.05511003   -0.05077355
     atom   20 type  1   force =    -0.02641437    0.05511003    0.05077355
     atom   21 type  1   force =     0.03451950    0.05043053   -0.05077355
     atom   22 type  1   force =    -0.03451950   -0.05043053    0.05077355
     atom   23 type  1   force =    -0.06093387    0.00467950   -0.05077355
     atom   24 type  1   force =     0.06093387   -0.00467950    0.05077355
     atom   25 type  1   force =    -0.03039161   -0.06183666    0.01532216
     atom   26 type  1   force =     0.03039161    0.06183666   -0.01532216
     atom   27 type  1   force =     0.06874793    0.00459843    0.01532216
     atom   28 type  1   force =    -0.06874793   -0.00459843   -0.01532216
     atom   29 type  1   force =    -0.03835632    0.05723824    0.01532216
     atom   30 type  1   force =     0.03835632   -0.05723824   -0.01532216
     atom   31 type  1   force =    -0.06761074    0.02500449    0.04674899
     atom   32 type  1   force =     0.06761074   -0.02500449   -0.04674899
     atom   33 type  1   force =     0.01215085   -0.07105486    0.04674899
     atom   34 type  1   force =    -0.01215085    0.07105486   -0.04674899
     atom   35 type  1   force =     0.05545989    0.04605037    0.04674899
     atom   36 type  1   force =    -0.05545989   -0.04605037   -0.04674899

     Total force =     0.610192     Total SCF correction =     0.000323


     Computing stress (Cartesian axis) and pressure

          total   stress  (Ry/bohr**3)                   (kbar)     P=     -102.18
  -0.00077388  -0.00000000   0.00000000         -113.84       -0.00        0.00
   0.00000000  -0.00077388  -0.00000000            0.00     -113.84       -0.00
   0.00000000  -0.00000000  -0.00053605            0.00       -0.00      -78.86


     BFGS Geometry Optimization
     Energy error            =      0.0E+00 Ry
     Gradient error          =      1.4E-01 Ry/Bohr

     number of scf cycles    =   1
     number of bfgs steps    =   0

     energy             new  =    -413.7180224721 Ry

     new trust radius        =       0.1540005161 bohr
     new conv_thr            =       0.0000001000 Ry


ATOMIC_POSITIONS (crystal)
O                0.2738239218        0.0353698944        0.8592138727
O                0.7261760782        0.9646301166        0.1407860973
O                0.8592138727        0.2738239218        0.0353698944
O                0.1407860973        0.7261760782        0.9646301166
O                0.0353698944        0.8592138727        0.2738239218
O                0.9646301166        0.1407860973        0.7261760782
O                0.4693552192        0.7483170491        0.3295850369
O                0.5306447808        0.2516829509        0.6704149331
O                0.3295850369        0.4693552192        0.7483170491
O                0.6704149331        0.5306447808        0.2516829509
O                0.7483170491        0.3295850369        0.4693552192
O                0.2516829509        0.6704149331        0.5306447808
H                0.1652945887        0.0632135421        0.8082332738
H                0.8347053973        0.9367864499        0.1917667262
H                0.8082332738        0.1652945887        0.0632135421
H                0.1917667262        0.8347053973        0.9367864499
H                0.0632135421        0.8082332738        0.1652945887
H                0.9367864499        0.1917667262        0.8347053973
H                0.4111647701        0.1984249598        0.9931100851
H                0.5888352299        0.8015750552        0.0068898939
H                0.9931100851        0.4111647701        0.1984249598
H                0.0068898939        0.5888352299        0.8015750552
H                0.1984249598        0.9931100851        0.4111647701
H                0.8015750552        0.0068898939        0.5888352299
H                0.7204437873        0.3994602026        0.3988078670
H                0.2795562127        0.6005397674        0.6011921630
H                0.3988078670        0.7204437873        0.3994602026
H                0.6011921630        0.2795562127        0.6005397674
H                0.3994602026        0.3988078670        0.7204437873
H                0.6005397674        0.6011921630        0.2795562127
H                0.7415839876        0.2078980039        0.3658431933
H                0.2584160124        0.7921019811        0.6341568067
H                0.3658431933        0.7415839876        0.2078980039
H                0.6341568067        0.2584160124        0.7921019811
H                0.2078980039        0.3658431933        0.7415839876
H                0.7921019811        0.6341568067        0.2584160124



     Writing config-only to output data dir ./iceII/iceII.save/ :
     XML data file
     NEW-OLD atomic charge density approx. for the potential

     negative rho (up, down):  7.127E-07 0.000E+00

     total cpu time spent up to now is       16.6 secs

     per-process dynamical memory:    30.7 Mb

     Self-consistent Calculation

     iteration #  1     ecut=    90.00 Ry     beta= 0.70
     Davidson diagonalization with overlap
     ethr =  1.00E-06,  avg # of iterations = 10.0

     negative rho (up, down):  1.598E-06 0.000E+00

     total cpu time spent up to now is       19.3 secs

     total energy              =    -413.85536902 Ry
     estimated scf accuracy    <       0.13189151 Ry

     iteration #  2     ecut=    90.00 Ry     beta= 0.70
     Davidson diagonalization with overlap
     ethr =  1.37E-04,  avg # of iterations =  3.0

     negative rho (up, down):  1.299E-06 0.000E+00

     total cpu time spent up to now is       20.4 secs

     total energy              =    -413.89216299 Ry
     estimated scf accuracy    <       0.05696131 Ry

     iteration #  3     ecut=    90.00 Ry     beta= 0.70
     Davidson diagonalization with overlap
     ethr =  5.93E-05,  avg # of iterations =  2.0

     negative rho (up, down):  1.455E-06 0.000E+00

     total cpu time spent up to now is       21.2 secs

     total energy              =    -413.90070239 Ry
     estimated scf accuracy    <       0.00158549 Ry

     iteration #  4     ecut=    90.00 Ry     beta= 0.70
     Davidson diagonalization with overlap
     ethr =  1.65E-06,  avg # of iterations =  5.0

     negative rho (up, down):  1.691E-06 0.000E+00

     total cpu time spent up to now is       22.5 secs

     total energy              =    -413.90181652 Ry
     estimated scf accuracy    <       0.00238722 Ry

     iteration #  5     ecut=    90.00 Ry     beta= 0.70
     Davidson diagonalization with overlap
     ethr =  1.65E-06,  avg # of iterations =  2.1

     negative rho (up, down):  1.885E-06 0.000E+00

     total cpu time spent up to now is       23.4 secs

     total energy              =    -413.90199281 Ry
     estimated scf accuracy    <       0.00021478 Ry

     iteration #  6     ecut=    90.00 Ry     beta= 0.70
     Davidson diagonalization with overlap
     ethr =  2.24E-07,  avg # of iterations =  4.0

     negative rho (up, down):  1.823E-06 0.000E+00

     total cpu time spent up to now is       24.6 secs

     total energy              =    -413.90209738 Ry
     estimated scf accuracy    <       0.00021427 Ry

     iteration #  7     ecut=    90.00 Ry     beta= 0.70
     Davidson diagonalization with overlap
     ethr =  2.23E-07,  avg # of iterations =  2.0

     negative rho (up, down):  1.790E-06 0.000E+00

     total cpu time spent up to now is       25.5 secs

     total energy              =    -413.90212984 Ry
     estimated scf accuracy    <       0.00000675 Ry

     iteration #  8     ecut=    90.00 Ry     beta= 0.70
     Davidson diagonalization with overlap
     ethr =  7.03E-09,  avg # of iterations =  4.0

     negative rho (up, down):  1.789E-06 0.000E+00

     total cpu time spent up to now is       26.7 secs

     total energy              =    -413.90213478 Ry
     estimated scf accuracy    <       0.00000091 Ry

     iteration #  9     ecut=    90.00 Ry     beta= 0.70
     Davidson diagonalization with overlap
     ethr =  9.43E-10,  avg # of iterations =  2.0

     negative rho (up, down):  1.790E-06 0.000E+00

     total cpu time spent up to now is       27.5 secs

     total energy              =    -413.90213463 Ry
     estimated scf accuracy    <       0.00000060 Ry

     iteration # 10     ecut=    90.00 Ry     beta= 0.70
     Davidson diagonalization with overlap
     ethr =  6.29E-10,  avg # of iterations =  2.0

     negative rho (up, down):  1.792E-06 0.000E+00

     total cpu time spent up to now is       28.3 secs

     End of self-consistent calculation

          k = 0.0000 0.0000 0.0000 ( 34105 PWs)   bands (ev):

   -21.5454 -21.2645 -21.2645 -21.0868 -21.0868 -21.0646 -21.0646 -21.0628
   -21.0597 -20.8489 -20.8489 -20.6612  -9.1394  -8.9954  -8.9554  -8.9554
    -8.9212  -8.9212  -8.4868  -8.4868  -8.3995  -8.3988  -8.3988  -8.2925
    -7.1287  -6.2869  -6.2869  -5.7465  -5.7465  -5.7246  -5.7246  -5.4945
    -5.4557  -4.8611  -4.8611  -4.3082  -3.5016  -3.5016  -3.4868  -3.3221
    -3.3221  -3.2929  -3.1899  -3.1578  -3.1578  -3.1523  -3.0893  -3.0893

          k =-0.1498-0.0865 0.3111 ( 34065 PWs)   bands (ev):

   -21.4969 -21.2850 -21.2635 -21.1743 -21.1591 -21.1293 -21.0204 -20.9886
   -20.9628 -20.8556 -20.8301 -20.6963  -9.1099  -9.0113  -8.9769  -8.9738
    -8.9159  -8.8786  -8.4908  -8.4710  -8.4139  -8.3679  -8.3596  -8.3251
    -6.9878  -6.4036  -6.3206  -6.0329  -5.8373  -5.6658  -5.5796  -5.4024
    -5.3442  -4.8609  -4.7974  -4.4102  -3.5774  -3.5246  -3.4797  -3.3515
    -3.3406  -3.3203  -3.2691  -3.1959  -3.1439  -3.1072  -3.0850  -3.0458

          k = 0.2996 0.1730-0.6221 ( 34070 PWs)   bands (ev):

   -21.3937 -21.3482 -21.2865 -21.2216 -21.1895 -21.1625 -20.9934 -20.9569
   -20.8907 -20.8508 -20.8105 -20.7607  -9.0605  -9.0412  -9.0010  -8.9649
    -8.9143  -8.8671  -8.4786  -8.4555  -8.4030  -8.3920  -8.3328  -8.3238
    -6.7221  -6.5949  -6.3734  -6.2113  -5.8510  -5.7591  -5.5150  -5.3635
    -5.0568  -4.9228  -4.7459  -4.5529  -3.6439  -3.5350  -3.4647  -3.4115
    -3.3724  -3.3563  -3.2574  -3.2086  -3.2081  -3.0734  -3.0688  -3.0087

          k =-0.1498 0.0865 0.6221 ( 34086 PWs)   bands (ev):

   -21.4043 -21.3128 -21.3058 -21.2232 -21.1969 -21.1662 -20.9836 -20.9437
   -20.9086 -20.8393 -20.8255 -20.7552  -9.0625  -9.0315  -9.0183  -8.9446
    -8.9258  -8.8659  -8.4753  -8.4595  -8.4207  -8.3623  -8.3419  -8.3264
    -6.7492  -6.5016  -6.4788  -6.1023  -5.9362  -5.8016  -5.4547  -5.3053
    -5.1621  -4.8262  -4.7983  -4.5545  -3.6289  -3.5634  -3.4530  -3.4141
    -3.3791  -3.3135  -3.2942  -3.2178  -3.1859  -3.0808  -3.0715  -3.0045

          k = 0.2996 0.3460-0.3111 ( 34081 PWs)   bands (ev):

   -21.4346 -21.3454 -21.2763 -21.2191 -21.1742 -21.1432 -20.9875 -20.9585
   -20.9139 -20.8516 -20.8169 -20.7406  -9.0816  -9.0525  -8.9889  -8.9562
    -8.9173  -8.8588  -8.5241  -8.5023  -8.4425  -8.3491  -8.3233  -8.3111
    -6.7750  -6.5367  -6.3331  -6.1374  -6.0720  -5.6986  -5.4005  -5.3158
    -5.1273  -4.9220  -4.7735  -4.5271  -3.5793  -3.5245  -3.4726  -3.4178
    -3.3351  -3.2965  -3.2580  -3.2339  -3.1697  -3.1179  -3.0758  -2.9930

          k = 0.1498 0.2595 0.0000 ( 34077 PWs)   bands (ev):

   -21.5105 -21.3094 -21.2745 -21.1579 -21.1308 -21.0739 -21.0552 -20.9955
   -20.9796 -20.8545 -20.8287 -20.6882  -9.1228  -9.0230  -8.9772  -8.9726
    -8.8953  -8.8825  -8.5409  -8.5101  -8.4073  -8.3899  -8.3522  -8.2941
    -6.9971  -6.3697  -6.2790  -6.0625  -5.9544  -5.6338  -5.5062  -5.3601
    -5.3135  -4.9027  -4.8320  -4.3804  -3.5044  -3.4934  -3.4897  -3.3759
    -3.3232  -3.2954  -3.2048  -3.1902  -3.1779  -3.1417  -3.0597  -3.0498

          k = 0.2996-0.1730-1.2442 ( 34078 PWs)   bands (ev):

   -21.4224 -21.4130 -21.2834 -21.1880 -21.1409 -21.0816 -21.0352 -20.9784
   -20.9332 -20.8637 -20.7735 -20.7452  -9.0889  -9.0671  -8.9858  -8.9780
    -8.8784  -8.8604  -8.5762  -8.5310  -8.4156  -8.3847  -8.3134  -8.3043
    -6.6893  -6.6598  -6.2927  -6.2199  -5.9050  -5.7505  -5.4170  -5.2557
    -5.1178  -5.0225  -4.7011  -4.5325  -3.5141  -3.4853  -3.4853  -3.4169
    -3.3291  -3.2696  -3.2481  -3.2153  -3.1750  -3.1426  -3.0358  -3.0248

          k = 0.0000 0.0000 0.9332 ( 34071 PWs)   bands (ev):

   -21.3627 -21.3627 -21.3504 -21.2313 -21.1614 -21.1614 -20.9471 -20.9471
   -20.9136 -20.8155 -20.8155 -20.7930  -9.0594  -9.0594  -9.0220  -8.9130
    -8.9130  -8.8929  -8.5370  -8.4854  -8.4854  -8.3167  -8.3167  -8.3024
    -6.5740  -6.5740  -6.5712  -6.1528  -5.9189  -5.9189  -5.2326  -5.1981
    -5.1981  -4.8130  -4.8130  -4.6716  -3.5397  -3.5397  -3.4597  -3.4235
    -3.3152  -3.3152  -3.2795  -3.2113  -3.2113  -3.1012  -3.1012  -2.9721

          k = 0.4494 0.2595 0.0000 ( 34085 PWs)   bands (ev):

   -21.4466 -21.3490 -21.3388 -21.1730 -21.1281 -21.0947 -21.0206 -20.9972
   -20.9386 -20.8319 -20.8052 -20.7348  -9.0936  -9.0491  -9.0225  -8.9413
    -8.9027  -8.8496  -8.5846  -8.5061  -8.4540  -8.3463  -8.3300  -8.3036
    -6.7738  -6.4847  -6.4205  -6.1788  -5.9259  -5.7236  -5.3791  -5.3402
    -5.1494  -4.8866  -4.7866  -4.5150  -3.5055  -3.4948  -3.4810  -3.4198
    -3.3386  -3.2822  -3.2383  -3.2077  -3.1659  -3.1249  -3.0733  -3.0098

          k = 0.2996 0.1730 0.3111 ( 34062 PWs)   bands (ev):

   -21.4653 -21.3182 -21.2619 -21.2143 -21.1585 -21.1299 -21.0109 -20.9928
   -20.9155 -20.8678 -20.8108 -20.7158  -9.0965  -9.0303  -8.9955  -8.9620
    -8.9235  -8.8432  -8.5366  -8.4576  -8.4097  -8.3937  -8.3380  -8.3254
    -6.8708  -6.4287  -6.3012  -6.1673  -5.9695  -5.6926  -5.5090  -5.3529
    -5.1848  -4.9070  -4.7779  -4.4421  -3.5942  -3.5276  -3.4888  -3.4006
    -3.3560  -3.3040  -3.2529  -3.2070  -3.1388  -3.1129  -3.0534  -3.0398

          k = 0.4494-0.2595-0.9332 ( 34060 PWs)   bands (ev):

   -21.3936 -21.3766 -21.2973 -21.2267 -21.1605 -21.1203 -21.0213 -20.9837
   -20.8741 -20.8589 -20.8074 -20.7411  -9.0703  -9.0552  -9.0160  -8.9548
    -8.9188  -8.8200  -8.5641  -8.4667  -8.4098  -8.3983  -8.3308  -8.3238
    -6.6573  -6.5372  -6.3133  -6.2846  -6.0216  -5.7324  -5.5062  -5.2845
    -4.9728  -4.9683  -4.8047  -4.4851  -3.6026  -3.5375  -3.5077  -3.4114
    -3.3717  -3.3380  -3.2131  -3.1793  -3.1584  -3.1155  -3.0583  -3.0145

          k = 0.2996-0.3460-0.6221 ( 34086 PWs)   bands (ev):

   -21.3800 -21.3234 -21.2947 -21.2556 -21.1886 -21.1757 -20.9850 -20.9652
   -20.8674 -20.8525 -20.8256 -20.7511  -9.0734  -9.0187  -9.0001  -8.9655
    -8.9494  -8.8254  -8.4935  -8.4644  -8.3933  -8.3863  -8.3444  -8.3395
    -6.6455  -6.5089  -6.3650  -6.2954  -5.9401  -5.8969  -5.3923  -5.3236
    -4.9875  -4.9437  -4.8334  -4.4881  -3.6683  -3.5441  -3.5102  -3.4307
    -3.4076  -3.2789  -3.2606  -3.2100  -3.1901  -3.0763  -3.0666  -2.9974

          k = 0.0000 0.0000-1.8663 ( 34092 PWs)   bands (ev):

   -21.3695 -21.2841 -21.2841 -21.2717 -21.2186 -21.2186 -20.9565 -20.9565
   -20.8684 -20.8684 -20.8258 -20.7423  -9.0802  -8.9998  -8.9998  -8.9682
    -8.9682  -8.7991  -8.5071  -8.4727  -8.3765  -8.3765  -8.3620  -8.3620
    -6.5885  -6.4387  -6.2369  -6.2369  -6.1395  -6.1395  -5.2494  -5.2494
    -5.0005  -5.0005  -4.8480  -4.4438  -3.6922  -3.5392  -3.5392  -3.4517
    -3.4517  -3.2811  -3.2270  -3.1594  -3.1594  -3.0962  -3.0962  -2.9805

          k = 0.2996-0.3460 0.3111 ( 34081 PWs)   bands (ev):

   -21.4355 -21.3380 -21.2884 -21.2178 -21.1666 -21.1436 -20.9970 -20.9557
   -20.9014 -20.8682 -20.8070 -20.7425  -9.0870  -9.0367  -8.9977  -8.9702
    -8.8966  -8.8670  -8.5329  -8.4955  -8.4393  -8.3468  -8.3284  -8.3098
    -6.7818  -6.4697  -6.4260  -6.1641  -5.9559  -5.7456  -5.5022  -5.2164
    -5.1017  -4.9322  -4.8071  -4.5166  -3.5818  -3.5163  -3.4823  -3.4071
    -3.3325  -3.3023  -3.2521  -3.2478  -3.1808  -3.0932  -3.0791  -2.9988

     highest occupied level (ev):    -2.9721

!    total energy              =    -413.90213464 Ry
     estimated scf accuracy    <       0.00000006 Ry

     The total energy is the sum of the following terms:
     one-electron contribution =    -321.32305477 Ry
     hartree contribution      =     192.45379398 Ry
     xc contribution           =    -101.56367869 Ry
     ewald contribution        =    -183.46919517 Ry

     convergence has been achieved in  10 iterations

     Forces acting on atoms (cartesian axes, Ry/au):

     atom    1 type  2   force =    -0.00132135   -0.01263280   -0.00842104
     atom    2 type  2   force =     0.00132135    0.01263280    0.00842104
     atom    3 type  2   force =     0.01160100    0.00517208   -0.00842104
     atom    4 type  2   force =    -0.01160100   -0.00517208    0.00842104
     atom    5 type  2   force =    -0.01027965    0.00746072   -0.00842104
     atom    6 type  2   force =     0.01027965   -0.00746072    0.00842104
     atom    7 type  2   force =     0.01049943   -0.01286827    0.00737955
     atom    8 type  2   force =    -0.01049943    0.01286827   -0.00737955
     atom    9 type  2   force =     0.00589453    0.01552691    0.00737955
     atom   10 type  2   force =    -0.00589453   -0.01552691   -0.00737955
     atom   11 type  2   force =    -0.01639396   -0.00265864    0.00737955
     atom   12 type  2   force =     0.01639396    0.00265864   -0.00737955
     atom   13 type  1   force =    -0.01666979    0.02215737   -0.03837072
     atom   14 type  1   force =     0.01666979   -0.02215737    0.03837072
     atom   15 type  1   force =    -0.01085395   -0.02551515   -0.03837072
     atom   16 type  1   force =     0.01085395    0.02551515    0.03837072
     atom   17 type  1   force =     0.02752375    0.00335778   -0.03837072
     atom   18 type  1   force =    -0.02752375   -0.00335778    0.03837072
     atom   19 type  1   force =     0.01779661   -0.01330278    0.04158028
     atom   20 type  1   force =    -0.01779661    0.01330278   -0.04158028
     atom   21 type  1   force =     0.00262224    0.02206370    0.04158028
     atom   22 type  1   force =    -0.00262224   -0.02206370   -0.04158028
     atom   23 type  1   force =    -0.02041885   -0.00876093    0.04158028
     atom   24 type  1   force =     0.02041885    0.00876093   -0.04158028
     atom   25 type  1   force =     0.00798549    0.01513478    0.00106080
     atom   26 type  1   force =    -0.00798549   -0.01513478   -0.00106080
     atom   27 type  1   force =    -0.01709985   -0.00065176    0.00106080
     atom   28 type  1   force =     0.01709985    0.00065176   -0.00106080
     atom   29 type  1   force =     0.00911436   -0.01448302    0.00106080
     atom   30 type  1   force =    -0.00911436    0.01448302   -0.00106080
     atom   31 type  1   force =     0.00370138   -0.00931836   -0.00432129
     atom   32 type  1   force =    -0.00370138    0.00931836    0.00432129
     atom   33 type  1   force =     0.00621925    0.00786467   -0.00432129
     atom   34 type  1   force =    -0.00621925   -0.00786467    0.00432129
     atom   35 type  1   force =    -0.00992063    0.00145369   -0.00432129
     atom   36 type  1   force =     0.00992063   -0.00145369    0.00432129

     Total force =     0.180656     Total SCF correction =     0.000152


     Computing stress (Cartesian axis) and pressure

          total   stress  (Ry/bohr**3)                   (kbar)     P=        6.76
  -0.00001154  -0.00000000   0.00000000           -1.70       -0.00        0.00
   0.00000000  -0.00001154  -0.00000000            0.00       -1.70       -0.00
  -0.00000000  -0.00000000   0.00016092           -0.00       -0.00       23.67

     Energy error            =      1.8E-01 Ry
     Gradient error          =      4.2E-02 Ry/Bohr

     number of scf cycles    =   2
     number of bfgs steps    =   1

     energy             old  =    -413.7180224721 Ry
     energy             new  =    -413.9021346440 Ry

     CASE: energy            _new < energy            _old

     new trust radius        =       0.0411967179 bohr
     new conv_thr            =       0.0000001000 Ry


ATOMIC_POSITIONS (crystal)
O                0.2734728465        0.0349077426        0.8592037266
O                0.7265271535        0.9650922684        0.1407962434
O                0.8592037266        0.2734728465        0.0349077426
O                0.1407962434        0.7265271535        0.9650922684
O                0.0349077426        0.8592037266        0.2734728465
O                0.9650922684        0.1407962434        0.7265271535
O                0.4700130699        0.7482373642        0.3298712315
O                0.5299869301        0.2517626358        0.6701287385
O                0.3298712315        0.4700130699        0.7482373642
O                0.6701287385        0.5299869301        0.2517626358
O                0.7482373642        0.3298712315        0.4700130699
O                0.2517626358        0.6701287385        0.5299869301
H                0.1615392150        0.0610151938        0.8055131114
H                0.8384607710        0.9389847982        0.1944868886
H                0.8055131114        0.1615392150        0.0610151938
H                0.1944868886        0.8384607710        0.9389847982
H                0.0610151938        0.8055131114        0.1615392150
H                0.9389847982        0.1944868886        0.8384607710
H                0.4149251364        0.2005042751        0.9955233366
H                0.5850748636        0.7994957399        0.0044766424
H                0.9955233366        0.4149251364        0.2005042751
H                0.0044766424        0.5850748636        0.7994957399
H                0.2005042751        0.9955233366        0.4149251364
H                0.7994957399        0.0044766424        0.5850748636
H                0.7205759883        0.4000528644        0.3985224246
H                0.2794240117        0.5999471056        0.6014776054
H                0.3985224246        0.7205759883        0.4000528644
H                0.6014776054        0.2794240117        0.5999471056
H                0.4000528644        0.3985224246        0.7205759883
H                0.5999471056        0.6014776054        0.2794240117
H                0.7416209663        0.2074944217        0.3659232908
H                0.2583790337        0.7925055633        0.6340767092
H                0.3659232908        0.7416209663        0.2074944217
H                0.6340767092        0.2583790337        0.7925055633
H                0.2074944217        0.3659232908        0.7416209663
H                0.7925055633        0.6340767092        0.2583790337



     Writing config-only to output data dir ./iceII/iceII.save/ :
     XML data file
     NEW-OLD atomic charge density approx. for the potential

     negative rho (up, down):  1.744E-06 0.000E+00

     total cpu time spent up to now is       29.6 secs

     per-process dynamical memory:    30.7 Mb

     Self-consistent Calculation

     iteration #  1     ecut=    90.00 Ry     beta= 0.70
     Davidson diagonalization with overlap
     ethr =  1.00E-06,  avg # of iterations =  4.2

     negative rho (up, down):  1.421E-06 0.000E+00

     total cpu time spent up to now is       31.0 secs

     total energy              =    -413.91922366 Ry
     estimated scf accuracy    <       0.00281291 Ry

     iteration #  2     ecut=    90.00 Ry     beta= 0.70
     Davidson diagonalization with overlap
     ethr =  2.93E-06,  avg # of iterations =  3.0

     negative rho (up, down):  1.514E-06 0.000E+00

     total cpu time spent up to now is       32.0 secs

     total energy              =    -413.91998171 Ry
     estimated scf accuracy    <       0.00112358 Ry

     iteration #  3     ecut=    90.00 Ry     beta= 0.70
     Davidson diagonalization with overlap
     ethr =  1.17E-06,  avg # of iterations =  2.0

     negative rho (up, down):  1.615E-06 0.000E+00

     total cpu time spent up to now is       32.9 secs

     total energy              =    -413.92015647 Ry
     estimated scf accuracy    <       0.00003492 Ry

     iteration #  4     ecut=    90.00 Ry     beta= 0.70
     Davidson diagonalization with overlap
     ethr =  3.64E-08,  avg # of iterations =  4.3

     negative rho (up, down):  1.588E-06 0.000E+00

     total cpu time spent up to now is       34.1 secs

     total energy              =    -413.92017815 Ry
     estimated scf accuracy    <       0.00004596 Ry

     iteration #  5     ecut=    90.00 Ry     beta= 0.70
     Davidson diagonalization with overlap
     ethr =  3.64E-08,  avg # of iterations =  2.0

     negative rho (up, down):  1.564E-06 0.000E+00

     total cpu time spent up to now is       34.9 secs

     total energy              =    -413.92017981 Ry
     estimated scf accuracy    <       0.00000603 Ry

     iteration #  6     ecut=    90.00 Ry     beta= 0.70
     Davidson diagonalization with overlap
     ethr =  6.28E-09,  avg # of iterations =  3.4

     negative rho (up, down):  1.575E-06 0.000E+00

     total cpu time spent up to now is       36.1 secs

     total energy              =    -413.92018291 Ry
     estimated scf accuracy    <       0.00000350 Ry

     iteration #  7     ecut=    90.00 Ry     beta= 0.70
     Davidson diagonalization with overlap
     ethr =  3.65E-09,  avg # of iterations =  2.0

     negative rho (up, down):  1.579E-06 0.000E+00

     total cpu time spent up to now is       36.9 secs

     total energy              =    -413.92018313 Ry
     estimated scf accuracy    <       0.00000045 Ry

     iteration #  8     ecut=    90.00 Ry     beta= 0.70
     Davidson diagonalization with overlap
     ethr =  4.64E-10,  avg # of iterations =  3.0

     negative rho (up, down):  1.583E-06 0.000E+00

     total cpu time spent up to now is       37.9 secs

     End of self-consistent calculation

          k = 0.0000 0.0000 0.0000 ( 34105 PWs)   bands (ev):

   -21.4073 -21.1033 -21.1033 -20.9395 -20.9395 -20.9307 -20.9307 -20.9196
   -20.9034 -20.7043 -20.7043 -20.5127  -9.0743  -8.9326  -8.8897  -8.8897
    -8.8578  -8.8578  -8.4142  -8.4142  -8.3256  -8.3149  -8.3149  -8.2058
    -7.1079  -6.2027  -6.2027  -5.7520  -5.7520  -5.6494  -5.6494  -5.4109
    -5.4059  -4.8189  -4.8189  -4.2576  -3.4910  -3.4910  -3.4410  -3.2833
    -3.2833  -3.2564  -3.1688  -3.1362  -3.1049  -3.1049  -3.0746  -3.0746

          k =-0.1498-0.0865 0.3111 ( 34065 PWs)   bands (ev):

   -21.3570 -21.1281 -21.0976 -21.0402 -21.0210 -20.9755 -20.8780 -20.8462
   -20.8136 -20.7104 -20.6849 -20.5493  -9.0449  -8.9473  -8.9142  -8.9092
    -8.8523  -8.8141  -8.4159  -8.3969  -8.3309  -8.2889  -8.2751  -8.2414
    -6.9569  -6.3391  -6.2429  -5.9962  -5.8450  -5.6094  -5.5000  -5.3543
    -5.2597  -4.8172  -4.7564  -4.3708  -3.5629  -3.5133  -3.4391  -3.3189
    -3.3113  -3.2794  -3.2513  -3.1549  -3.1222  -3.0674  -3.0566  -3.0184

          k = 0.2996 0.1730-0.6221 ( 34070 PWs)   bands (ev):

   -21.2426 -21.2109 -21.1192 -21.0927 -21.0360 -21.0147 -20.8461 -20.8181
   -20.7419 -20.7025 -20.6562 -20.6242  -8.9956  -8.9770  -8.9373  -8.9026
    -8.8523  -8.8020  -8.3991  -8.3764  -8.3245  -8.3132  -8.2476  -8.2390
    -6.6596  -6.5586  -6.3038  -6.1941  -5.8231  -5.7514  -5.4056  -5.2765
    -4.9726  -4.8827  -4.7100  -4.5395  -3.6284  -3.5241  -3.4432  -3.3648
    -3.3367  -3.3274  -3.2312  -3.2051  -3.1593  -3.0519  -3.0191  -2.9794

          k =-0.1498 0.0865 0.6221 ( 34086 PWs)   bands (ev):

   -21.2584 -21.1629 -21.1551 -21.0776 -21.0557 -21.0147 -20.8417 -20.7917
   -20.7650 -20.6917 -20.6769 -20.6137  -8.9977  -8.9672  -8.9546  -8.8843
    -8.8613  -8.8013  -8.3955  -8.3809  -8.3441  -8.2802  -8.2582  -8.2413
    -6.6925  -6.4535  -6.4310  -6.0644  -5.9160  -5.7753  -5.3690  -5.2010
    -5.0932  -4.7855  -4.7571  -4.5413  -3.6155  -3.5472  -3.4341  -3.3606
    -3.3512  -3.2874  -3.2699  -3.1847  -3.1634  -3.0541  -3.0266  -2.9733

          k = 0.2996 0.3460-0.3111 ( 34081 PWs)   bands (ev):

   -21.2916 -21.1849 -21.1337 -21.0797 -21.0326 -20.9890 -20.8514 -20.7989
   -20.7398 -20.7359 -20.6645 -20.5995  -9.0166  -8.9882  -8.9246  -8.8912
    -8.8556  -8.7953  -8.4532  -8.4284  -8.3624  -8.2657  -8.2392  -8.2246
    -6.7371  -6.4750  -6.2701  -6.0999  -6.0605  -5.6489  -5.2947  -5.2390
    -5.0862  -4.8720  -4.7366  -4.5038  -3.5632  -3.5064  -3.4488  -3.3759
    -3.2987  -3.2650  -3.2264  -3.2066  -3.1558  -3.0939  -3.0281  -2.9617

          k = 0.1498 0.2595 0.0000 ( 34077 PWs)   bands (ev):

   -21.3707 -21.1526 -21.1163 -21.0169 -20.9932 -20.9390 -20.8989 -20.8496
   -20.8198 -20.7128 -20.6871 -20.5416  -9.0576  -8.9590  -8.9124  -8.9075
    -8.8314  -8.8194  -8.4726  -8.4375  -8.3287  -8.3065  -8.2696  -8.2074
    -6.9716  -6.2895  -6.2089  -6.0318  -5.9328  -5.5711  -5.4359  -5.2900
    -5.2675  -4.8622  -4.7959  -4.3348  -3.4893  -3.4800  -3.4541  -3.3362
    -3.2824  -3.2551  -3.1811  -3.1751  -3.1418  -3.1120  -3.0295  -3.0187

          k = 0.2996-0.1730-1.2442 ( 34078 PWs)   bands (ev):

   -21.2801 -21.2635 -21.1269 -21.0499 -20.9948 -20.9535 -20.8660 -20.8349
   -20.7632 -20.7318 -20.6278 -20.6056  -9.0238  -9.0019  -8.9207  -8.9137
    -8.8144  -8.7983  -8.5100  -8.4588  -8.3375  -8.3014  -8.2289  -8.2173
    -6.6418  -6.6257  -6.2307  -6.1816  -5.8681  -5.6756  -5.3284  -5.2048
    -5.0287  -5.0187  -4.6527  -4.5060  -3.4908  -3.4670  -3.4642  -3.3775
    -3.2855  -3.2306  -3.2203  -3.1948  -3.1519  -3.1200  -3.0055  -2.9851

          k = 0.0000 0.0000 0.9332 ( 34071 PWs)   bands (ev):

   -21.2162 -21.2162 -21.1889 -21.1107 -21.0109 -21.0109 -20.8007 -20.8007
   -20.7374 -20.6723 -20.6723 -20.6644  -8.9950  -8.9950  -8.9566  -8.8480
    -8.8480  -8.8340  -8.4677  -8.4084  -8.4084  -8.2321  -8.2321  -8.2138
    -6.5357  -6.5357  -6.4787  -6.1746  -5.8649  -5.8649  -5.1225  -5.1225
    -5.0992  -4.7847  -4.7847  -4.6747  -3.5218  -3.5218  -3.4364  -3.3940
    -3.2741  -3.2741  -3.2437  -3.1943  -3.1943  -3.0646  -3.0646  -2.9415

          k = 0.4494 0.2595 0.0000 ( 34085 PWs)   bands (ev):

   -21.3032 -21.1941 -21.1904 -21.0484 -20.9674 -20.9491 -20.8725 -20.8556
   -20.7676 -20.6927 -20.6648 -20.5923  -9.0283  -8.9843  -8.9573  -8.8769
    -8.8386  -8.7876  -8.5184  -8.4328  -8.3771  -8.2609  -8.2466  -8.2174
    -6.7383  -6.4197  -6.3745  -6.1636  -5.8582  -5.6435  -5.3261  -5.2941
    -5.0571  -4.8538  -4.7517  -4.4827  -3.4790  -3.4773  -3.4625  -3.3791
    -3.2993  -3.2505  -3.2036  -3.1856  -3.1376  -3.1014  -3.0474  -2.9696

          k = 0.2996 0.1730 0.3111 ( 34062 PWs)   bands (ev):

   -21.3233 -21.1598 -21.1030 -21.0840 -21.0126 -20.9851 -20.8571 -20.8443
   -20.7792 -20.7155 -20.6670 -20.5708  -9.0314  -8.9657  -8.9315  -8.8975
    -8.8609  -8.7791  -8.4659  -8.3820  -8.3269  -8.3136  -8.2540  -8.2416
    -6.8362  -6.3623  -6.2604  -6.0892  -5.9659  -5.6430  -5.4188  -5.2832
    -5.1575  -4.8418  -4.7393  -4.4089  -3.5812  -3.5056  -3.4597  -3.3653
    -3.3146  -3.2726  -3.2271  -3.1803  -3.1257  -3.0853  -3.0263  -2.9887

          k = 0.4494-0.2595-0.9332 ( 34060 PWs)   bands (ev):

   -21.2401 -21.2325 -21.1446 -21.0990 -21.0108 -20.9657 -20.8794 -20.8288
   -20.7276 -20.7092 -20.6649 -20.5988  -9.0054  -8.9899  -8.9511  -8.8910
    -8.8560  -8.7564  -8.4956  -8.3908  -8.3295  -8.3166  -8.2467  -8.2392
    -6.6075  -6.4977  -6.2839  -6.2245  -5.9695  -5.6526  -5.4562  -5.2318
    -4.9486  -4.8709  -4.7647  -4.4611  -3.5898  -3.5097  -3.4828  -3.3712
    -3.3350  -3.3035  -3.1906  -3.1567  -3.1452  -3.0954  -3.0277  -2.9582

          k = 0.2996-0.3460-0.6221 ( 34086 PWs)   bands (ev):

   -21.2220 -21.1866 -21.1359 -21.1256 -21.0380 -21.0277 -20.8332 -20.8186
   -20.7268 -20.7142 -20.6661 -20.6102  -9.0085  -8.9539  -8.9354  -8.9031
    -8.8869  -8.7616  -8.4151  -8.3888  -8.3132  -8.3061  -8.2601  -8.2555
    -6.5743  -6.4851  -6.3041  -6.2614  -5.8966  -5.8665  -5.3025  -5.2448
    -4.9514  -4.9108  -4.7532  -4.4762  -3.6545  -3.5234  -3.4860  -3.3920
    -3.3653  -3.2656  -3.2245  -3.1860  -3.1724  -3.0526  -3.0345  -2.9462

          k = 0.0000 0.0000-1.8663 ( 34092 PWs)   bands (ev):

   -21.2002 -21.1574 -21.1334 -21.1334 -21.0732 -21.0732 -20.7896 -20.7896
   -20.7464 -20.7464 -20.6643 -20.5975  -9.0152  -8.9341  -8.9341  -8.9060
    -8.9060  -8.7358  -8.4299  -8.3996  -8.2941  -8.2941  -8.2798  -8.2798
    -6.5092  -6.4440  -6.1441  -6.1441  -6.1267  -6.1267  -5.1538  -5.1538
    -5.0052  -5.0052  -4.7307  -4.4322  -3.6767  -3.5153  -3.5153  -3.4136
    -3.4136  -3.2303  -3.2273  -3.1478  -3.1478  -3.0637  -3.0637  -2.9216

          k = 0.2996-0.3460 0.3111 ( 34081 PWs)   bands (ev):

   -21.2908 -21.1919 -21.1169 -21.0908 -21.0320 -20.9905 -20.8459 -20.7971
   -20.7677 -20.7069 -20.6720 -20.5992  -9.0222  -8.9722  -8.9326  -8.9062
    -8.8358  -8.8021  -8.4626  -8.4207  -8.3593  -8.2640  -8.2436  -8.2236
    -6.7419  -6.4288  -6.3493  -6.1172  -5.9610  -5.6902  -5.4019  -5.1373
    -5.0261  -4.9066  -4.7728  -4.4907  -3.5675  -3.4890  -3.4651  -3.3663
    -3.2970  -3.2697  -3.2295  -3.2041  -3.1730  -3.0739  -3.0281  -2.9669

     highest occupied level (ev):    -2.9216

!    total energy              =    -413.92018322 Ry
     estimated scf accuracy    <       0.00000002 Ry

     The total energy is the sum of the following terms:
     one-electron contribution =    -318.73484207 Ry
     hartree contribution      =     191.26805933 Ry
     xc contribution           =    -101.32828316 Ry
     ewald contribution        =    -185.12511731 Ry

     convergence has been achieved in   8 iterations

     Forces acting on atoms (cartesian axes, Ry/au):

     atom    1 type  2   force =    -0.00835669    0.01031630    0.01061050
     atom    2 type  2   force =     0.00835669   -0.01031630   -0.01061050
     atom    3 type  2   force =    -0.00475583   -0.01239526    0.01061050
     atom    4 type  2   force =     0.00475583    0.01239526   -0.01061050
     atom    5 type  2   force =     0.01311252    0.00207896    0.01061050
     atom    6 type  2   force =    -0.01311252   -0.00207896   -0.01061050
     atom    7 type  2   force =     0.00070958   -0.00650613    0.00139329
     atom    8 type  2   force =    -0.00070958    0.00650613   -0.00139329
     atom    9 type  2   force =     0.00527968    0.00386758    0.00139329
     atom   10 type  2   force =    -0.00527968   -0.00386758   -0.00139329
     atom   11 type  2   force =    -0.00598926    0.00263855    0.00139329
     atom   12 type  2   force =     0.00598926   -0.00263855   -0.00139329
     atom   13 type  1   force =    -0.00601482   -0.00031186   -0.02240271
     atom   14 type  1   force =     0.00601482    0.00031186    0.02240271
     atom   15 type  1   force =     0.00327748   -0.00505306   -0.02240271
     atom   16 type  1   force =    -0.00327748    0.00505306    0.02240271
     atom   17 type  1   force =     0.00273733    0.00536491   -0.02240271
     atom   18 type  1   force =    -0.00273733   -0.00536491    0.02240271
     atom   19 type  1   force =     0.01355513   -0.01340477    0.00710476
     atom   20 type  1   force =    -0.01355513    0.01340477   -0.00710476
     atom   21 type  1   force =     0.00483130    0.01844147    0.00710476
     atom   22 type  1   force =    -0.00483130   -0.01844147   -0.00710476
     atom   23 type  1   force =    -0.01838643   -0.00503670    0.00710476
     atom   24 type  1   force =     0.01838643    0.00503670   -0.00710476
     atom   25 type  1   force =     0.00384713    0.00425766    0.00239362
     atom   26 type  1   force =    -0.00384713   -0.00425766   -0.00239362
     atom   27 type  1   force =    -0.00561081    0.00120289    0.00239362
     atom   28 type  1   force =     0.00561081   -0.00120289   -0.00239362
     atom   29 type  1   force =     0.00176367   -0.00546054    0.00239362
     atom   30 type  1   force =    -0.00176367    0.00546054   -0.00239362
     atom   31 type  1   force =    -0.00276899   -0.00435891    0.00079783
     atom   32 type  1   force =     0.00276899    0.00435891   -0.00079783
     atom   33 type  1   force =     0.00515943   -0.00021856    0.00079783
     atom   34 type  1   force =    -0.00515943    0.00021856   -0.00079783
     atom   35 type  1   force =    -0.00239043    0.00457747    0.00079783
     atom   36 type  1   force =     0.00239043   -0.00457747   -0.00079783

     Total force =     0.090055     Total SCF correction =     0.000131


     Computing stress (Cartesian axis) and pressure

          total   stress  (Ry/bohr**3)                   (kbar)     P=      -13.97
  -0.00012427   0.00000000   0.00000000          -18.28        0.00        0.00
  -0.00000000  -0.00012427  -0.00000000           -0.00      -18.28       -0.00
  -0.00000000  -0.00000000  -0.00003625           -0.00       -0.00       -5.33

     Energy error            =      1.8E-02 Ry
     Gradient error          =      2.2E-02 Ry/Bohr

     number of scf cycles    =   3
     number of bfgs steps    =   2

     energy             old  =    -413.9021346440 Ry
     energy             new  =    -413.9201832187 Ry

     CASE: energy            _new < energy            _old

     new trust radius        =       0.0617929311 bohr
     new conv_thr            =       0.0000001000 Ry


ATOMIC_POSITIONS (crystal)
O                0.2737838433        0.0373020844        0.8609807103
O                0.7262161567        0.9626979266        0.1390192597
O                0.8609807103        0.2737838433        0.0373020844
O                0.1390192597        0.7262161567        0.9626979266
O                0.0373020844        0.8609807103        0.2737838433
O                0.9626979266        0.1390192597        0.7262161567
O                0.4704607828        0.7478185253        0.3303022670
O                0.5295392172        0.2521814747        0.6696977030
O                0.3303022670        0.4704607828        0.7478185253
O                0.6696977030        0.5295392172        0.2521814747
O                0.7478185253        0.3303022670        0.4704607828
O                0.2521814747        0.6696977030        0.5295392172
H                0.1559890694        0.0564623571        0.8012475328
H                0.8440109166        0.9435376349        0.1987524672
H                0.8012475328        0.1559890694        0.0564623571
H                0.1987524672        0.8440109166        0.9435376349
H                0.0564623571        0.8012475328        0.1559890694
H                0.9435376349        0.1987524672        0.8440109166
H                0.4193810898        0.2014053315        0.9973619521
H                0.5806189102        0.7985946835        0.0026380269
H                0.9973619521        0.4193810898        0.2014053315
H                0.0026380269        0.5806189102        0.7985946835
H                0.2014053315        0.9973619521        0.4193810898
H                0.7985946835        0.0026380269        0.5806189102
H                0.7211244208        0.4009593845        0.3984474979
H                0.2788755792        0.5990405855        0.6015525321
H                0.3984474979        0.7211244208        0.4009593845
H                0.6015525321        0.2788755792        0.5990405855
H                0.4009593845        0.3984474979        0.7211244208
H                0.5990405855        0.6015525321        0.2788755792
H                0.7417594690        0.2072718053        0.3666870694
H                0.2582405310        0.7927281797        0.6333129306
H                0.3666870694        0.7417594690        0.2072718053
H                0.6333129306        0.2582405310        0.7927281797
H                0.2072718053        0.3666870694        0.7417594690
H                0.7927281797        0.6333129306        0.2582405310



     Writing config-only to output data dir ./iceII/iceII.save/ :
     XML data file
     NEW-OLD atomic charge density approx. for the potential

     negative rho (up, down):  1.526E-06 0.000E+00

     total cpu time spent up to now is       39.1 secs

     per-process dynamical memory:    30.7 Mb

     Self-consistent Calculation

     iteration #  1     ecut=    90.00 Ry     beta= 0.70
     Davidson diagonalization with overlap
     ethr =  1.00E-06,  avg # of iterations =  7.0

     negative rho (up, down):  1.058E-06 0.000E+00

     total cpu time spent up to now is       40.8 secs

     total energy              =    -413.93186845 Ry
     estimated scf accuracy    <       0.00148913 Ry

     iteration #  2     ecut=    90.00 Ry     beta= 0.70
     Davidson diagonalization with overlap
     ethr =  1.55E-06,  avg # of iterations =  2.4

     negative rho (up, down):  1.103E-06 0.000E+00

     total cpu time spent up to now is       41.7 secs

     total energy              =    -413.93215568 Ry
     estimated scf accuracy    <       0.00023102 Ry

     iteration #  3     ecut=    90.00 Ry     beta= 0.70
     Davidson diagonalization with overlap
     ethr =  2.41E-07,  avg # of iterations =  2.4

     negative rho (up, down):  1.130E-06 0.000E+00

     total cpu time spent up to now is       42.7 secs

     total energy              =    -413.93220615 Ry
     estimated scf accuracy    <       0.00001854 Ry

     iteration #  4     ecut=    90.00 Ry     beta= 0.70
     Davidson diagonalization with overlap
     ethr =  1.93E-08,  avg # of iterations =  2.0

     negative rho (up, down):  1.125E-06 0.000E+00

     total cpu time spent up to now is       43.5 secs

     total energy              =    -413.93220816 Ry
     estimated scf accuracy    <       0.00000157 Ry

     iteration #  5     ecut=    90.00 Ry     beta= 0.70
     Davidson diagonalization with overlap
     ethr =  1.63E-09,  avg # of iterations =  3.2

     negative rho (up, down):  1.123E-06 0.000E+00

     total cpu time spent up to now is       44.5 secs

     total energy              =    -413.93220856 Ry
     estimated scf accuracy    <       0.00000010 Ry

     iteration #  6     ecut=    90.00 Ry     beta= 0.70
     Davidson diagonalization with overlap
     ethr =  1.09E-10,  avg # of iterations =  2.9

     negative rho (up, down):  1.123E-06 0.000E+00

     total cpu time spent up to now is       45.4 secs

     End of self-consistent calculation

          k = 0.0000 0.0000 0.0000 ( 34105 PWs)   bands (ev):

   -21.3417 -21.0492 -21.0492 -20.8683 -20.8683 -20.8325 -20.8325 -20.8298
   -20.8275 -20.5952 -20.5952 -20.4126  -9.0320  -8.9053  -8.8685  -8.8685
    -8.8554  -8.8554  -8.5286  -8.5286  -8.4920  -8.4807  -8.4807  -8.3804
    -7.0078  -6.0735  -6.0735  -5.7070  -5.7070  -5.5194  -5.5194  -5.3381
    -5.2609  -4.7290  -4.7290  -4.1719  -3.4802  -3.4802  -3.4259  -3.2703
    -3.2703  -3.2374  -3.1523  -3.1139  -3.0745  -3.0745  -3.0599  -3.0599

          k =-0.1498-0.0865 0.3111 ( 34065 PWs)   bands (ev):

   -21.2932 -21.0717 -21.0519 -20.9530 -20.9204 -20.8966 -20.7967 -20.7633
   -20.7350 -20.6006 -20.5771 -20.4461  -9.0045  -8.9257  -8.8940  -8.8819
    -8.8433  -8.8003  -8.5531  -8.5314  -8.4967  -8.4444  -8.4293  -8.4073
    -6.8573  -6.2296  -6.1157  -5.9119  -5.8019  -5.5308  -5.3320  -5.2792
    -5.1061  -4.7313  -4.6707  -4.2949  -3.5459  -3.4999  -3.4242  -3.3064
    -3.2996  -3.2561  -3.2381  -3.1316  -3.1061  -3.0545  -3.0240  -2.9999

          k = 0.2996 0.1730-0.6221 ( 34070 PWs)   bands (ev):

   -21.1976 -21.1336 -21.0702 -20.9984 -20.9552 -20.9224 -20.7749 -20.7298
   -20.6683 -20.5958 -20.5605 -20.5023  -8.9587  -8.9470  -8.9078  -8.8874
    -8.8386  -8.7825  -8.5471  -8.5348  -8.4830  -8.4651  -8.4016  -8.3912
    -6.5245  -6.4896  -6.1605  -6.1498  -5.7352  -5.7154  -5.2069  -5.1594
    -4.8309  -4.7922  -4.6284  -4.5044  -3.6060  -3.5100  -3.4289  -3.3457
    -3.3162  -3.3134  -3.2149  -3.2033  -3.1328  -3.0409  -2.9859  -2.9622

          k =-0.1498 0.0865 0.6221 ( 34086 PWs)   bands (ev):

   -21.2055 -21.1034 -21.0897 -20.9963 -20.9612 -20.9306 -20.7614 -20.7211
   -20.6798 -20.5902 -20.5728 -20.4971  -8.9608  -8.9355  -8.9282  -8.8731
    -8.8413  -8.7823  -8.5446  -8.5380  -8.5022  -8.4302  -8.4124  -8.3962
    -6.5817  -6.3557  -6.3291  -5.9793  -5.8523  -5.7040  -5.2226  -5.0266
    -4.9730  -4.7162  -4.6541  -4.5054  -3.5937  -3.5296  -3.4228  -3.3414
    -3.3305  -3.2760  -3.2567  -3.1718  -3.1453  -3.0365  -3.0005  -2.9525

          k = 0.2996 0.3460-0.3111 ( 34081 PWs)   bands (ev):

   -21.2301 -21.1271 -21.0830 -20.9869 -20.9341 -20.9108 -20.7746 -20.7248
   -20.6744 -20.6134 -20.5576 -20.4885  -8.9786  -8.9549  -8.8936  -8.8699
    -8.8445  -8.7795  -8.6011  -8.5818  -8.5254  -8.4185  -8.3971  -8.3805
    -6.6357  -6.3443  -6.1856  -6.0315  -5.9650  -5.5582  -5.1629  -5.0580
    -5.0299  -4.7676  -4.6571  -4.4416  -3.5456  -3.4924  -3.4355  -3.3610
    -3.2803  -3.2428  -3.2157  -3.1893  -3.1455  -3.0771  -2.9960  -2.9408

          k = 0.1498 0.2595 0.0000 ( 34077 PWs)   bands (ev):

   -21.3055 -21.0968 -21.0612 -20.9344 -20.9047 -20.8430 -20.8283 -20.7640
   -20.7451 -20.6034 -20.5761 -20.4395  -9.0159  -8.9305  -8.8930  -8.8779
    -8.8211  -8.8139  -8.6128  -8.5744  -8.4960  -8.4577  -8.4227  -8.3766
    -6.8710  -6.1461  -6.1147  -5.9429  -5.8611  -5.4605  -5.3238  -5.1898
    -5.1576  -4.7701  -4.7125  -4.2501  -3.4793  -3.4686  -3.4397  -3.3220
    -3.2663  -3.2318  -3.1729  -3.1541  -3.1219  -3.0920  -3.0059  -2.9929

          k = 0.2996-0.1730-1.2442 ( 34078 PWs)   bands (ev):

   -21.2127 -21.2057 -21.0717 -20.9657 -20.9125 -20.8525 -20.8060 -20.7454
   -20.6920 -20.6163 -20.5296 -20.4915  -8.9850  -8.9639  -8.8993  -8.8810
    -8.7974  -8.7859  -8.6642  -8.6128  -8.5064  -8.4477  -8.3902  -8.3744
    -6.5275  -6.5273  -6.1213  -6.1027  -5.7733  -5.5560  -5.1925  -5.1215
    -4.9629  -4.8904  -4.5656  -4.4307  -3.4798  -3.4529  -3.4523  -3.3646
    -3.2646  -3.2042  -3.2021  -3.1891  -3.1375  -3.1013  -2.9810  -2.9574

          k = 0.0000 0.0000 0.9332 ( 34071 PWs)   bands (ev):

   -21.1539 -21.1508 -21.1508 -20.9902 -20.9352 -20.9352 -20.7143 -20.7143
   -20.6924 -20.5679 -20.5679 -20.5322  -8.9600  -8.9600  -8.9195  -8.8295
    -8.8288  -8.8288  -8.6217  -8.5657  -8.5657  -8.3852  -8.3852  -8.3701
    -6.4347  -6.4347  -6.2951  -6.1837  -5.7719  -5.7719  -4.9944  -4.9944
    -4.8774  -4.7203  -4.7203  -4.6577  -3.5055  -3.5055  -3.4258  -3.3835
    -3.2497  -3.2497  -3.2230  -3.1896  -3.1896  -3.0365  -3.0365  -2.9218

          k = 0.4494 0.2595 0.0000 ( 34085 PWs)   bands (ev):

   -21.2391 -21.1389 -21.1269 -20.9487 -20.9040 -20.8698 -20.7844 -20.7584
   -20.7047 -20.5872 -20.5559 -20.4836  -8.9882  -8.9495  -8.9247  -8.8540
    -8.8239  -8.7728  -8.6724  -8.5855  -8.5410  -8.4186  -8.3977  -8.3795
    -6.6344  -6.2928  -6.2733  -6.1071  -5.7428  -5.5187  -5.2341  -5.2028
    -4.9176  -4.7711  -4.6733  -4.4041  -3.4701  -3.4627  -3.4487  -3.3656
    -3.2798  -3.2318  -3.1856  -3.1746  -3.1186  -3.0823  -3.0254  -2.9410

          k = 0.2996 0.1730 0.3111 ( 34062 PWs)   bands (ev):

   -21.2604 -21.1043 -21.0574 -20.9908 -20.9222 -20.8916 -20.7915 -20.7622
   -20.6836 -20.6202 -20.5583 -20.4630  -8.9912  -8.9377  -8.9067  -8.8659
    -8.8504  -8.7648  -8.6104  -8.5260  -8.4874  -8.4787  -8.4084  -8.4025
    -6.7366  -6.2539  -6.1771  -5.9533  -5.9006  -5.5558  -5.2542  -5.1820
    -5.0893  -4.7244  -4.6568  -4.3366  -3.5635  -3.4900  -3.4444  -3.3476
    -3.2991  -3.2562  -3.2136  -3.1610  -3.1163  -3.0679  -3.0106  -2.9540

          k = 0.4494-0.2595-0.9332 ( 34060 PWs)   bands (ev):

   -21.1858 -21.1679 -21.0895 -21.0034 -20.9281 -20.8835 -20.7964 -20.7464
   -20.6455 -20.6144 -20.5639 -20.4803  -8.9663  -8.9547  -8.9214  -8.8639
    -8.8359  -8.7361  -8.6477  -8.5519  -8.4973  -8.4716  -8.4061  -8.3944
    -6.5078  -6.3993  -6.2050  -6.1262  -5.8427  -5.5247  -5.3515  -5.1525
    -4.8718  -4.7276  -4.6798  -4.3945  -3.5712  -3.4914  -3.4655  -3.3534
    -3.3158  -3.2904  -3.1786  -3.1467  -3.1328  -3.0810  -3.0089  -2.9223

          k = 0.2996-0.3460-0.6221 ( 34086 PWs)   bands (ev):

   -21.1800 -21.1132 -21.0840 -21.0352 -20.9502 -20.9324 -20.7633 -20.7384
   -20.6347 -20.6062 -20.5861 -20.4852  -8.9699  -8.9214  -8.9037  -8.8845
    -8.8675  -8.7409  -8.5614  -8.5525  -8.4743  -8.4617  -8.4168  -8.4111
    -6.4509  -6.4217  -6.1997  -6.1719  -5.7996  -5.7680  -5.1595  -5.1202
    -4.8677  -4.8460  -4.5930  -4.4504  -3.6277  -3.5063  -3.4688  -3.3725
    -3.3447  -3.2611  -3.2088  -3.1757  -3.1559  -3.0398  -3.0172  -2.9132

          k = 0.0000 0.0000-1.8663 ( 34092 PWs)   bands (ev):

   -21.1606 -21.0908 -21.0908 -21.0463 -20.9701 -20.9701 -20.7268 -20.7268
   -20.6236 -20.6236 -20.6075 -20.4715  -8.9735  -8.9014  -8.9014  -8.8821
    -8.8821  -8.7103  -8.5756  -8.5692  -8.4581  -8.4581  -8.4369  -8.4369
    -6.4406  -6.3458  -6.0911  -6.0911  -5.9575  -5.9575  -4.9968  -4.9968
    -4.9822  -4.9822  -4.5495  -4.4085  -3.6437  -3.4968  -3.4968  -3.3943
    -3.3943  -3.2340  -3.2031  -3.1408  -3.1408  -3.0471  -3.0471  -2.8852

          k = 0.2996-0.3460 0.3111 ( 34081 PWs)   bands (ev):

   -21.2287 -21.1375 -21.0688 -20.9874 -20.9425 -20.9107 -20.7559 -20.7393
   -20.6815 -20.5999 -20.5654 -20.4878  -8.9824  -8.9434  -8.9018  -8.8806
    -8.8261  -8.7863  -8.6131  -8.5724  -8.5218  -8.4155  -8.4007  -8.3811
    -6.6352  -6.3508  -6.2002  -6.0098  -5.9380  -5.5952  -5.2316  -5.0047
    -4.9490  -4.7978  -4.6984  -4.4270  -3.5502  -3.4733  -3.4520  -3.3532
    -3.2781  -3.2488  -3.2175  -3.1818  -3.1660  -3.0598  -2.9955  -2.9453

     highest occupied level (ev):    -2.8852

!    total energy              =    -413.93220858 Ry
     estimated scf accuracy    <       0.00000002 Ry

     The total energy is the sum of the following terms:
     one-electron contribution =    -317.21530881 Ry
     hartree contribution      =     190.56708828 Ry
     xc contribution           =    -101.23795770 Ry
     ewald contribution        =    -186.04603035 Ry

     convergence has been achieved in   6 iterations

     Forces acting on atoms (cartesian axes, Ry/au):

     atom    1 type  2   force =    -0.00614237    0.00553784    0.00179518
     atom    2 type  2   force =     0.00614237   -0.00553784   -0.00179518
     atom    3 type  2   force =    -0.00172473   -0.00808837    0.00179518
     atom    4 type  2   force =     0.00172473    0.00808837   -0.00179518
     atom    5 type  2   force =     0.00786710    0.00255053    0.00179518
     atom    6 type  2   force =    -0.00786710   -0.00255053   -0.00179518
     atom    7 type  2   force =    -0.00324755    0.00068497   -0.00438354
     atom    8 type  2   force =     0.00324755   -0.00068497    0.00438354
     atom    9 type  2   force =     0.00103058   -0.00315494   -0.00438354
     atom   10 type  2   force =    -0.00103058    0.00315494    0.00438354
     atom   11 type  2   force =     0.00221697    0.00246998   -0.00438354
     atom   12 type  2   force =    -0.00221697   -0.00246998    0.00438354
     atom   13 type  1   force =    -0.00163120   -0.00732367   -0.00325619
     atom   14 type  1   force =     0.00163120    0.00732367    0.00325619
     atom   15 type  1   force =     0.00715808    0.00224918   -0.00325619
     atom   16 type  1   force =    -0.00715808   -0.00224918    0.00325619
     atom   17 type  1   force =    -0.00552688    0.00507449   -0.00325619
     atom   18 type  1   force =     0.00552688   -0.00507449    0.00325619
     atom   19 type  1   force =     0.00646275   -0.00103505   -0.00252658
     atom   20 type  1   force =    -0.00646275    0.00103505    0.00252658
     atom   21 type  1   force =    -0.00233500    0.00611443   -0.00252658
     atom   22 type  1   force =     0.00233500   -0.00611443    0.00252658
     atom   23 type  1   force =    -0.00412775   -0.00507938   -0.00252658
     atom   24 type  1   force =     0.00412775    0.00507938    0.00252658
     atom   25 type  1   force =     0.00108779   -0.00234913    0.00315867
     atom   26 type  1   force =    -0.00108779    0.00234913   -0.00315867
     atom   27 type  1   force =     0.00149051    0.00211662    0.00315867
     atom   28 type  1   force =    -0.00149051   -0.00211662   -0.00315867
     atom   29 type  1   force =    -0.00257830    0.00023251    0.00315867
     atom   30 type  1   force =     0.00257830   -0.00023251   -0.00315867
     atom   31 type  1   force =    -0.00788548    0.00122658    0.00500530
     atom   32 type  1   force =     0.00788548   -0.00122658   -0.00500530
     atom   33 type  1   force =     0.00288049   -0.00744232    0.00500530
     atom   34 type  1   force =    -0.00288049    0.00744232   -0.00500530
     atom   35 type  1   force =     0.00500499    0.00621573    0.00500530
     atom   36 type  1   force =    -0.00500499   -0.00621573   -0.00500530

     Total force =     0.044049     Total SCF correction =     0.000145


     Computing stress (Cartesian axis) and pressure

          total   stress  (Ry/bohr**3)                   (kbar)     P=      -23.22
  -0.00018132  -0.00000000   0.00000000          -26.67       -0.00        0.00
   0.00000000  -0.00018132  -0.00000000            0.00      -26.67       -0.00
   0.00000000  -0.00000000  -0.00011088            0.00       -0.00      -16.31

     Energy error            =      1.2E-02 Ry
     Gradient error          =      8.1E-03 Ry/Bohr

     number of scf cycles    =   4
     number of bfgs steps    =   3

     energy             old  =    -413.9201832187 Ry
     energy             new  =    -413.9322085789 Ry

     CASE: energy            _new < energy            _old

     new trust radius        =       0.0211037254 bohr
     new conv_thr            =       0.0000000809 Ry


ATOMIC_POSITIONS (crystal)
O                0.2734526030        0.0379515158        0.8614957033
O                0.7265473970        0.9620484952        0.1385042667
O                0.8614957033        0.2734526030        0.0379515158
O                0.1385042667        0.7265473970        0.9620484952
O                0.0379515158        0.8614957033        0.2734526030
O                0.9620484952        0.1385042667        0.7265473970
O                0.4700210193        0.7473461798        0.3301050133
O                0.5299789807        0.2526538202        0.6698949567
O                0.3301050133        0.4700210193        0.7473461798
O                0.6698949567        0.5299789807        0.2526538202
O                0.7473461798        0.3301050133        0.4700210193
O                0.2526538202        0.6698949567        0.5299789807
H                0.1542694378        0.0546837759        0.8000729667
H                0.8457305482        0.9453162161        0.1999270333
H                0.8000729667        0.1542694378        0.0546837759
H                0.1999270333        0.8457305482        0.9453162161
H                0.0546837759        0.8000729667        0.1542694378
H                0.9453162161        0.1999270333        0.8457305482
H                0.4208756549        0.2016958734        0.9976143015
H                0.5791243451        0.7983041416        0.0023856775
H                0.9976143015        0.4208756549        0.2016958734
H                0.0023856775        0.5791243451        0.7983041416
H                0.2016958734        0.9976143015        0.4208756549
H                0.7983041416        0.0023856775        0.5791243451
H                0.7216557003        0.4013827121        0.3987131578
H                0.2783442997        0.5986172579        0.6012868722
H                0.3987131578        0.7216557003        0.4013827121
H                0.6012868722        0.2783442997        0.5986172579
H                0.4013827121        0.3987131578        0.7216557003
H                0.5986172579        0.6012868722        0.2783442997
H                0.7418723795        0.2077390217        0.3676601307
H                0.2581276205        0.7922609633        0.6323398693
H                0.3676601307        0.7418723795        0.2077390217
H                0.6323398693        0.2581276205        0.7922609633
H                0.2077390217        0.3676601307        0.7418723795
H                0.7922609633        0.6323398693        0.2581276205



     Writing config-only to output data dir ./iceII/iceII.save/ :
     XML data file
     NEW-OLD atomic charge density approx. for the potential

     negative rho (up, down):  1.170E-06 0.000E+00

     total cpu time spent up to now is       46.7 secs

     per-process dynamical memory:    30.7 Mb

     Self-consistent Calculation

     iteration #  1     ecut=    90.00 Ry     beta= 0.70
     Davidson diagonalization with overlap
     ethr =  1.00E-06,  avg # of iterations =  4.0

     negative rho (up, down):  1.095E-06 0.000E+00

     total cpu time spent up to now is       48.1 secs

     total energy              =    -413.93378813 Ry
     estimated scf accuracy    <       0.00031871 Ry

     iteration #  2     ecut=    90.00 Ry     beta= 0.70
     Davidson diagonalization with overlap
     ethr =  3.32E-07,  avg # of iterations =  3.0

     negative rho (up, down):  1.080E-06 0.000E+00

     total cpu time spent up to now is       49.0 secs

     total energy              =    -413.93385940 Ry
     estimated scf accuracy    <       0.00007082 Ry

     iteration #  3     ecut=    90.00 Ry     beta= 0.70
     Davidson diagonalization with overlap
     ethr =  7.38E-08,  avg # of iterations =  2.1

     negative rho (up, down):  1.076E-06 0.000E+00

     total cpu time spent up to now is       49.9 secs

     total energy              =    -413.93387535 Ry
[...]
H                0.0142130534        0.5875430980        0.8189084642
H                0.1810915508        0.9857869256        0.4124569020
H                0.8189084642        0.0142130534        0.5875430980
H                0.7278468783        0.4113000238        0.4153137932
H                0.2721531217        0.5886999462        0.5846862368
H                0.4153137932        0.7278468783        0.4113000238
H                0.5846862368        0.2721531217        0.5886999462
H                0.4113000238        0.4153137932        0.7278468783
H                0.5886999462        0.5846862368        0.2721531217
H                0.7470283852        0.2187358844        0.3879699703
H                0.2529716148        0.7812641006        0.6120300297
H                0.3879699703        0.7470283852        0.2187358844
H                0.6120300297        0.2529716148        0.7812641006
H                0.2187358844        0.3879699703        0.7470283852
H                0.7812641006        0.6120300297        0.2529716148



     Writing config-only to output data dir ./iceII/iceII.save/ :
     XML data file
     NEW-OLD atomic charge density approx. for the potential

     negative rho (up, down):  4.095E-07 0.000E+00

     total cpu time spent up to now is      401.6 secs

     per-process dynamical memory:    32.1 Mb

     Self-consistent Calculation

     iteration #  1     ecut=    90.00 Ry     beta= 0.70
     Davidson diagonalization with overlap
     ethr =  1.00E-06,  avg # of iterations =  3.0

     Threshold (ethr) on eigenvalues was too large:
     Diagonalizing with lowered threshold

     Davidson diagonalization with overlap
     ethr =  1.97E-08,  avg # of iterations =  3.6

     negative rho (up, down):  4.290E-07 0.000E+00

     total cpu time spent up to now is      403.6 secs

     total energy              =    -413.94392387 Ry
     estimated scf accuracy    <       0.00002416 Ry

     iteration #  2     ecut=    90.00 Ry     beta= 0.70
     Davidson diagonalization with overlap
     ethr =  2.52E-08,  avg # of iterations =  2.0

     negative rho (up, down):  4.355E-07 0.000E+00

     total cpu time spent up to now is      404.4 secs

     total energy              =    -413.94392699 Ry
     estimated scf accuracy    <       0.00000115 Ry

     iteration #  3     ecut=    90.00 Ry     beta= 0.70
     Davidson diagonalization with overlap
     ethr =  1.20E-09,  avg # of iterations =  2.1

     negative rho (up, down):  4.373E-07 0.000E+00

     total cpu time spent up to now is      405.2 secs

     total energy              =    -413.94392717 Ry
     estimated scf accuracy    <       0.00000006 Ry

     iteration #  4     ecut=    90.00 Ry     beta= 0.70
     Davidson diagonalization with overlap
     ethr =  6.53E-11,  avg # of iterations =  3.1

     negative rho (up, down):  4.373E-07 0.000E+00

     total cpu time spent up to now is      406.3 secs

     total energy              =    -413.94392719 Ry
     estimated scf accuracy    <       0.00000001 Ry

     iteration #  5     ecut=    90.00 Ry     beta= 0.70
     Davidson diagonalization with overlap
     ethr =  1.20E-11,  avg # of iterations =  2.9

     negative rho (up, down):  4.372E-07 0.000E+00

     total cpu time spent up to now is      407.2 secs

     End of self-consistent calculation

          k = 0.0000 0.0000 0.0000 ( 34105 PWs)   bands (ev):

   -21.3805 -21.1155 -21.1155 -20.8885 -20.8885 -20.8807 -20.8251 -20.8251
   -20.8193 -20.5563 -20.5563 -20.3608  -9.0249  -8.9279  -8.8684  -8.8684
    -8.8378  -8.8378  -8.5574  -8.5574  -8.4818  -8.4818  -8.4684  -8.4329
    -6.9745  -6.0987  -6.0987  -5.7264  -5.7264  -5.5281  -5.4166  -5.4166
    -5.1601  -4.6939  -4.6939  -4.0827  -3.4948  -3.4948  -3.3663  -3.2841
    -3.2789  -3.2789  -3.1445  -3.1441  -3.0986  -3.0986  -3.0771  -3.0771

          k =-0.1498-0.0865 0.3111 ( 34065 PWs)   bands (ev):

   -21.3380 -21.1296 -21.1194 -20.9582 -20.9433 -20.9164 -20.8050 -20.7663
   -20.7459 -20.5614 -20.5421 -20.3897  -9.0037  -8.9254  -8.9010  -8.8868
    -8.8417  -8.8066  -8.5571  -8.5424  -8.4893  -8.4534  -8.4406  -8.4286
    -6.8328  -6.2303  -6.1119  -5.9246  -5.8345  -5.6302  -5.2590  -5.2263
    -5.0133  -4.7169  -4.6483  -4.2088  -3.5469  -3.5085  -3.3899  -3.3427
    -3.3195  -3.2810  -3.2121  -3.1617  -3.1164  -3.1002  -3.0363  -3.0191

          k = 0.2996 0.1730-0.6221 ( 34070 PWs)   bands (ev):

   -21.2670 -21.1699 -21.1273 -20.9961 -20.9877 -20.9378 -20.7887 -20.7291
   -20.6958 -20.5597 -20.5295 -20.4299  -8.9675  -8.9383  -8.9205  -8.8949
    -8.8541  -8.7941  -8.5380  -8.5234  -8.4999  -8.4688  -8.4089  -8.3979
    -6.4987  -6.4922  -6.1869  -6.0944  -5.8193  -5.7801  -5.1257  -5.0759
    -4.7956  -4.7677  -4.5725  -4.4607  -3.5971  -3.5195  -3.4211  -3.3850
    -3.3493  -3.2728  -3.2323  -3.2265  -3.1236  -3.0945  -3.0077  -2.9861

          k =-0.1498 0.0865 0.6221 ( 34086 PWs)   bands (ev):

   -21.2709 -21.1501 -21.1385 -21.0131 -20.9723 -20.9476 -20.7726 -20.7384
   -20.6932 -20.5560 -20.5385 -20.4271  -8.9675  -8.9336  -8.9255  -8.8998
    -8.8456  -8.7969  -8.5364  -8.5262  -8.5115  -8.4453  -8.4195  -8.3988
    -6.5718  -6.3419  -6.3005  -5.9879  -5.9345  -5.7462  -5.1616  -4.9430
    -4.9159  -4.7084  -4.6112  -4.4492  -3.5912  -3.5221  -3.4390  -3.3724
    -3.3174  -3.3089  -3.2386  -3.1977  -3.1533  -3.0630  -3.0370  -2.9725

          k = 0.2996 0.3460-0.3111 ( 34081 PWs)   bands (ev):

   -21.2820 -21.1812 -21.1384 -20.9995 -20.9427 -20.9242 -20.7947 -20.7454
   -20.6988 -20.5621 -20.5235 -20.4224  -8.9750  -8.9489  -8.9079  -8.8678
    -8.8572  -8.7953  -8.5864  -8.5667  -8.5152  -8.4379  -8.4284  -8.4026
    -6.6245  -6.3270  -6.2256  -6.0648  -5.9295  -5.5700  -5.1896  -5.0336
    -4.9281  -4.7253  -4.6230  -4.3724  -3.5497  -3.4837  -3.4332  -3.3570
    -3.3106  -3.2574  -3.2325  -3.2046  -3.1611  -3.1030  -3.0110  -2.9674

          k = 0.1498 0.2595 0.0000 ( 34077 PWs)   bands (ev):

   -21.3463 -21.1565 -21.1235 -20.9482 -20.9159 -20.8663 -20.8336 -20.7852
   -20.7561 -20.5598 -20.5352 -20.3851  -9.0071  -8.9341  -8.8893  -8.8781
    -8.8214  -8.8186  -8.6007  -8.5762  -8.4860  -8.4784  -8.4444  -8.4254
    -6.8491  -6.1789  -6.1426  -5.9500  -5.8216  -5.4146  -5.3757  -5.2256
    -5.0567  -4.7233  -4.6732  -4.1695  -3.4958  -3.4794  -3.3924  -3.3167
    -3.2729  -3.2718  -3.1943  -3.1724  -3.1488  -3.1163  -3.0252  -3.0018

          k = 0.2996-0.1730-1.2442 ( 34078 PWs)   bands (ev):

   -21.2709 -21.2403 -21.1310 -20.9848 -20.9241 -20.8467 -20.8443 -20.7713
   -20.7089 -20.5646 -20.5034 -20.4212  -8.9729  -8.9600  -8.8963  -8.8825
    -8.8144  -8.8057  -8.6299  -8.5946  -8.4948  -8.4768  -8.4298  -8.4159
    -6.5642  -6.4868  -6.1346  -6.1265  -5.7540  -5.5087  -5.2257  -5.1598
    -4.8986  -4.8048  -4.5350  -4.3537  -3.4945  -3.4555  -3.4235  -3.3509
    -3.2656  -3.2550  -3.2295  -3.1954  -3.1767  -3.1180  -3.0013  -2.9632

          k = 0.0000 0.0000 0.9332 ( 34071 PWs)   bands (ev):

   -21.2396 -21.1861 -21.1861 -20.9953 -20.9508 -20.9508 -20.7387 -20.7387
   -20.7164 -20.5319 -20.5319 -20.4487  -8.9534  -8.9534  -8.9362  -8.8623
    -8.8285  -8.8285  -8.6011  -8.5483  -8.5483  -8.4165  -8.4165  -8.3915
    -6.3978  -6.3978  -6.2972  -6.2787  -5.7707  -5.7707  -5.0059  -5.0059
    -4.7379  -4.6931  -4.6931  -4.5831  -3.5007  -3.5007  -3.4522  -3.3728
    -3.2657  -3.2657  -3.2258  -3.2258  -3.2004  -3.0438  -3.0438  -2.9682

          k = 0.4494 0.2595 0.0000 ( 34085 PWs)   bands (ev):

   -21.2865 -21.1964 -21.1681 -20.9626 -20.9273 -20.8910 -20.7966 -20.7732
   -20.7246 -20.5474 -20.5194 -20.4183  -8.9783  -8.9442  -8.9218  -8.8577
    -8.8264  -8.8048  -8.6375  -8.5723  -8.5278  -8.4474  -8.4325  -8.4229
    -6.6314  -6.3163  -6.2619  -6.1225  -5.7268  -5.4880  -5.2840  -5.1771
    -4.8479  -4.7308  -4.6353  -4.3303  -3.4926  -3.4559  -3.4205  -3.3457
    -3.2948  -3.2628  -3.2179  -3.2124  -3.1345  -3.0999  -3.0418  -2.9503

          k = 0.2996 0.1730 0.3111 ( 34062 PWs)   bands (ev):

   -21.3085 -21.1600 -21.1231 -20.9973 -20.9400 -20.9010 -20.8105 -20.7755
   -20.6950 -20.5772 -20.5250 -20.4018  -8.9881  -8.9278  -8.9102  -8.8801
    -8.8515  -8.7846  -8.5931  -8.5326  -8.4920  -8.4771  -8.4347  -8.4220
    -6.7267  -6.2798  -6.1708  -5.9917  -5.8485  -5.6044  -5.2175  -5.1547
    -5.0262  -4.6889  -4.6215  -4.2654  -3.5712  -3.4778  -3.4159  -3.3653
    -3.3209  -3.2913  -3.2116  -3.1701  -3.1480  -3.0976  -3.0567  -2.9480

          k = 0.4494-0.2595-0.9332 ( 34060 PWs)   bands (ev):

   -21.2551 -21.2032 -21.1436 -21.0126 -20.9428 -20.9068 -20.8031 -20.7647
   -20.6710 -20.5674 -20.5324 -20.4122  -8.9576  -8.9481  -8.9160  -8.8752
    -8.8510  -8.7717  -8.6139  -8.5444  -8.4915  -8.4877  -8.4335  -8.4201
    -6.5549  -6.3640  -6.2256  -6.1286  -5.8077  -5.5378  -5.3158  -5.1304
    -4.8482  -4.6606  -4.6432  -4.3420  -3.5795  -3.4592  -3.4441  -3.3687
    -3.3423  -3.3146  -3.2059  -3.1750  -3.1403  -3.1179  -3.0501  -2.9127

          k = 0.2996-0.3460-0.6221 ( 34086 PWs)   bands (ev):

   -21.2527 -21.1582 -21.1398 -21.0410 -20.9610 -20.9411 -20.7836 -20.7547
   -20.6534 -20.5661 -20.5504 -20.4163  -8.9613  -8.9244  -8.9117  -8.8933
    -8.8778  -8.7730  -8.5508  -8.5314  -8.4926  -8.4734  -8.4226  -8.4145
    -6.4973  -6.4053  -6.1947  -6.1459  -5.8163  -5.7745  -5.1390  -5.0769
    -4.8313  -4.7934  -4.4948  -4.4514  -3.6246  -3.4903  -3.4486  -3.3985
    -3.3572  -3.3206  -3.2029  -3.1998  -3.1323  -3.0946  -3.0666  -2.9136

          k = 0.0000 0.0000-1.8663 ( 34092 PWs)   bands (ev):

   -21.2372 -21.1491 -21.1491 -21.0451 -20.9699 -20.9699 -20.7547 -20.7547
   -20.6390 -20.5725 -20.5725 -20.4044  -8.9531  -8.9065  -8.9065  -8.8933
    -8.8933  -8.7611  -8.5628  -8.5374  -8.4805  -8.4805  -8.4360  -8.4360
    -6.5218  -6.3352  -6.0980  -6.0980  -5.9025  -5.9025  -5.0350  -5.0350
    -4.8879  -4.8879  -4.4361  -4.4313  -3.6331  -3.4657  -3.4657  -3.4208
    -3.4208  -3.3232  -3.1672  -3.1672  -3.1330  -3.1043  -3.1043  -2.8786

          k = 0.2996-0.3460 0.3111 ( 34081 PWs)   bands (ev):

   -21.2810 -21.1888 -21.1299 -20.9986 -20.9496 -20.9231 -20.7778 -20.7624
   -20.6973 -20.5540 -20.5308 -20.4218  -8.9791  -8.9378  -8.9091  -8.8830
    -8.8488  -8.7942  -8.5891  -8.5659  -8.5125  -8.4413  -8.4232  -8.4053
    -6.6235  -6.3584  -6.1864  -6.0610  -5.9221  -5.6028  -5.2192  -4.9719
    -4.9138  -4.7298  -4.6625  -4.3619  -3.5532  -3.4732  -3.4384  -3.3602
    -3.2998  -3.2748  -3.2228  -3.1899  -3.1836  -3.0963  -3.0112  -2.9679

     highest occupied level (ev):    -2.8786

!    total energy              =    -413.94392720 Ry
     estimated scf accuracy    <          3.5E-10 Ry

     The total energy is the sum of the following terms:
     one-electron contribution =    -314.00343055 Ry
     hartree contribution      =     188.99386048 Ry
     xc contribution           =    -101.29842398 Ry
     ewald contribution        =    -187.63593314 Ry

     convergence has been achieved in   5 iterations

     Forces acting on atoms (cartesian axes, Ry/au):

     atom    1 type  2   force =    -0.00005555    0.00019330    0.00024708
     atom    2 type  2   force =     0.00005555   -0.00019330   -0.00024708
     atom    3 type  2   force =    -0.00013963   -0.00014476    0.00024708
     atom    4 type  2   force =     0.00013963    0.00014476   -0.00024708
     atom    5 type  2   force =     0.00019518   -0.00004854    0.00024708
     atom    6 type  2   force =    -0.00019518    0.00004854   -0.00024708
     atom    7 type  2   force =     0.00001498   -0.00006420   -0.00010054
     atom    8 type  2   force =    -0.00001498    0.00006420    0.00010054
     atom    9 type  2   force =     0.00004810    0.00004507   -0.00010054
     atom   10 type  2   force =    -0.00004810   -0.00004507    0.00010054
     atom   11 type  2   force =    -0.00006309    0.00001912   -0.00010054
     atom   12 type  2   force =     0.00006309   -0.00001912    0.00010054
     atom   13 type  1   force =     0.00005027   -0.00013563   -0.00002338
     atom   14 type  1   force =    -0.00005027    0.00013563    0.00002338
     atom   15 type  1   force =     0.00009232    0.00011135   -0.00002338
     atom   16 type  1   force =    -0.00009232   -0.00011135    0.00002338
     atom   17 type  1   force =    -0.00014259    0.00002428   -0.00002338
     atom   18 type  1   force =     0.00014259   -0.00002428    0.00002338
     atom   19 type  1   force =     0.00011328   -0.00006812   -0.00018086
     atom   20 type  1   force =    -0.00011328    0.00006812    0.00018086
     atom   21 type  1   force =     0.00000236    0.00013216   -0.00018086
     atom   22 type  1   force =    -0.00000236   -0.00013216    0.00018086
     atom   23 type  1   force =    -0.00011564   -0.00006404   -0.00018086
     atom   24 type  1   force =     0.00011564    0.00006404    0.00018086
     atom   25 type  1   force =    -0.00012127   -0.00002540   -0.00015763
     atom   26 type  1   force =     0.00012127    0.00002540    0.00015763
     atom   27 type  1   force =     0.00008264   -0.00009232   -0.00015763
     atom   28 type  1   force =    -0.00008264    0.00009232    0.00015763
     atom   29 type  1   force =     0.00003863    0.00011772   -0.00015763
     atom   30 type  1   force =    -0.00003863   -0.00011772    0.00015763
     atom   31 type  1   force =     0.00005138    0.00006664    0.00012735
     atom   32 type  1   force =    -0.00005138   -0.00006664   -0.00012735
     atom   33 type  1   force =    -0.00008340    0.00001118    0.00012735
     atom   34 type  1   force =     0.00008340   -0.00001118   -0.00012735
     atom   35 type  1   force =     0.00003202   -0.00007782    0.00012735
     atom   36 type  1   force =    -0.00003202    0.00007782   -0.00012735

     Total force =     0.001227     Total SCF correction =     0.000020


     Computing stress (Cartesian axis) and pressure

          total   stress  (Ry/bohr**3)                   (kbar)     P=      -18.53
  -0.00014422   0.00000000   0.00000000          -21.22        0.00        0.00
  -0.00000000  -0.00014422  -0.00000000           -0.00      -21.22       -0.00
   0.00000000  -0.00000000  -0.00008956            0.00       -0.00      -13.17

     Energy error            =      3.4E-06 Ry
     Gradient error          =      2.5E-04 Ry/Bohr

     number of scf cycles    =  50
     number of bfgs steps    =  49

     energy             old  =    -413.9439238102 Ry
     energy             new  =    -413.9439271972 Ry

     CASE: energy            _new < energy            _old

     new trust radius        =       0.0011925138 bohr

     The maximum number of steps has been reached.

     End of BFGS Geometry Optimization

ATOMIC_POSITIONS (crystal)
O                0.2638209012        0.0177763388        0.8582599969
O                0.7361790988        0.9822236722        0.1417399731
O                0.8582599969        0.2638209012        0.0177763388
O                0.1417399731        0.7361790988        0.9822236722
O                0.0177763388        0.8582599969        0.2638209012
O                0.9822236722        0.1417399731        0.7361790988
O                0.4882196902        0.7503755498        0.3401999465
O                0.5117803098        0.2496244502        0.6598000235
O                0.3401999465        0.4882196902        0.7503755498
O                0.6598000235        0.5117803098        0.2496244502
O                0.7503755498        0.3401999465        0.4882196902
O                0.2496244502        0.6598000235        0.5117803098
H                0.1464365214        0.0378085444        0.8002962082
H                0.8535634646        0.9621914476        0.1997037918
H                0.8002962082        0.1464365214        0.0378085444
H                0.1997037918        0.8535634646        0.9621914476
H                0.0378085444        0.8002962082        0.1464365214
H                0.9621914476        0.1997037918        0.8535634646
H                0.4125302090        0.1810877954        0.9858153068
H                0.5874697910        0.8189122196        0.0141846722
H                0.9858153068        0.4125302090        0.1810877954
H                0.0141846722        0.5874697910        0.8189122196
H                0.1810877954        0.9858153068        0.4125302090
H                0.8189122196        0.0141846722        0.5874697910
H                0.7278454650        0.4112906693        0.4153467071
H                0.2721545350        0.5887093007        0.5846533229
H                0.4153467071        0.7278454650        0.4112906693
H                0.5846533229        0.2721545350        0.5887093007
H                0.4112906693        0.4153467071        0.7278454650
H                0.5887093007        0.5846533229        0.2721545350
H                0.7469835423        0.2187131322        0.3879464149
H                0.2530164577        0.7812868528        0.6120535851
H                0.3879464149        0.7469835423        0.2187131322
H                0.6120535851        0.2530164577        0.7812868528
H                0.2187131322        0.3879464149        0.7469835423
H                0.7812868528        0.6120535851        0.2530164577



     Writing config-only to output data dir ./iceII/iceII.save/ :
     XML data file
     NEW-OLD atomic charge density approx. for the potential

     negative rho (up, down):  4.355E-07 0.000E+00

     Writing all to output data dir ./iceII/iceII.save/ :
     XML data file, charge density, pseudopotentials, collected wavefunctions

     init_run     :      1.27s CPU      1.35s WALL (       1 calls)
     electrons    :    337.92s CPU    343.37s WALL (      50 calls)
     update_pot   :      1.48s CPU      1.57s WALL (      50 calls)
     forces       :      7.50s CPU      7.55s WALL (      50 calls)
     stress       :     50.30s CPU     50.35s WALL (      50 calls)

     Called by init_run:
     wfcinit      :      0.38s CPU      0.39s WALL (       1 calls)
     potinit      :      0.04s CPU      0.06s WALL (       1 calls)
     hinit0       :      0.67s CPU      0.68s WALL (       1 calls)

     Called by electrons:
     c_bands      :    285.84s CPU    288.65s WALL (     346 calls)
     sum_band     :     40.61s CPU     40.91s WALL (     346 calls)
     v_of_rho     :      8.77s CPU      8.94s WALL (     371 calls)
     newd         :      1.44s CPU      1.46s WALL (     371 calls)
     mix_rho      :      1.12s CPU      1.14s WALL (     346 calls)

     Called by c_bands:
     init_us_2    :      5.57s CPU      5.80s WALL (    3172 calls)
     cegterg      :    275.80s CPU    277.73s WALL (    1384 calls)

     Called by *egterg:
     cdiaghg      :     19.56s CPU     19.61s WALL (    5041 calls)
     h_psi        :    206.83s CPU    208.50s WALL (    5345 calls)
     s_psi        :      9.46s CPU      9.53s WALL (    5345 calls)
     g_psi        :      0.62s CPU      0.62s WALL (    3957 calls)

     Called by h_psi:
     h_psi:calbec :     15.14s CPU     15.24s WALL (    5345 calls)
     vloc_psi     :    180.45s CPU    181.97s WALL (    5345 calls)
     add_vuspsi   :      9.60s CPU      9.64s WALL (    5345 calls)

     General routines
     calbec       :     21.99s CPU     22.14s WALL (    7729 calls)
     fft          :      5.91s CPU      6.06s WALL (    4557 calls)
     ffts         :      0.47s CPU      0.47s WALL (     346 calls)
     fftw         :    188.09s CPU    189.57s WALL (  477178 calls)
     davcio       :      0.00s CPU      0.00s WALL (       4 calls)

     Parallel routines

     PWSCF        :   6m42.28s CPU   6m49.20s WALL


   This run was terminated on:  20:30:37  31Mar2026            

=------------------------------------------------------------------------------=
   JOB DONE.
=------------------------------------------------------------------------------=
