
     Program PWSCF v.7.3.1 starts on 23Mar2026 at 18: 7:25 

     This program is part of the open-source Quantum ESPRESSO suite
     for quantum simulation of materials; please cite
         "P. Giannozzi et al., J. Phys.:Condens. Matter 21 395502 (2009);
         "P. Giannozzi et al., J. Phys.:Condens. Matter 29 465901 (2017);
         "P. Giannozzi et al., J. Chem. Phys. 152 154105 (2020);
          URL http://www.quantum-espresso.org", 
     in publications or presentations arising from this work. More details at
     http://www.quantum-espresso.org/quote

     Parallel version (MPI), running on   128 processors

     MPI processes distributed on     1 nodes
     242717 MiB available memory on the printing compute node when the environment starts

     Waiting for input...
     Reading input from standard input

     Current dimensions of program PWSCF are:
     Max number of different atomic species (ntypx) = 10
     Max number of k-points (npk) =  40000
     Max angular momentum in pseudopotentials (lmaxx) =  4

     K-points division:     npool     =       4
     R & G space division:  proc/nbgrp/npool/nimage =      32
     Subspace diagonalization in iterative solution of the eigenvalue problem:
     a serial algorithm will be used


     Parallelization info
     --------------------
     sticks:   dense  smooth     PW     G-vecs:    dense   smooth      PW
     Min         200     200     58                 8811     8811    1385
     Max         201     201     59                 8812     8812    1386
     Sum        6405    6405   1865               281971   281971   44347

     Using Slab Decomposition



     bravais-lattice index     =            5
     lattice parameter (alat)  =      15.5842  a.u.
     unit-cell volume          =    2445.3740 (a.u.)^3
     number of atoms/cell      =           36
     number of atomic types    =            2
     number of electrons       =        96.00
     number of Kohn-Sham states=           48
     kinetic-energy cutoff     =      90.0000  Ry
     charge density cutoff     =     360.0000  Ry
     scf convergence threshold =      1.0E-07
     mixing beta               =       0.7000
     number of iterations used =            8  plain     mixing
     Exchange-correlation=  SLA  PW   PBE  PBE
                           (   1   4   3   4   0   0   0)

     celldm(1)=  15.584192  celldm(2)=   0.000000  celldm(3)=   0.000000
     celldm(4)=  -0.392337  celldm(5)=   0.000000  celldm(6)=   0.000000

     crystal axes: (cart. coord. in units of alat)
               a(1) = (   0.834367  -0.481722   0.267909 )  
               a(2) = (   0.000000   0.963444   0.267909 )  
               a(3) = (  -0.834367  -0.481722   0.267909 )  

     reciprocal axes: (cart. coord. in units 2 pi/alat)
               b(1) = (  0.599257 -0.345981  1.244203 )  
               b(2) = ( -0.000000  0.691962  1.244203 )  
               b(3) = ( -0.599257 -0.345981  1.244203 )  


     PseudoPot. # 1 for H  read from file:
     ./H.pbe-van_ak.UPF
     MD5 check sum: 077eb6d537518a38cb46c6de387227b7
     Pseudo is Ultrasoft, Zval =  1.0
     Generated by new atomic code, or converted to UPF format
     Using radial grid of  615 points,  1 beta functions with: 
                l(1) =   0
     Q(r) pseudized with  8 coefficients,  rinner =    0.800

     PseudoPot. # 2 for O  read from file:
     ./O.pbe-van_ak.UPF
     MD5 check sum: 78c19812648e8988a0fe644b0f25305e
     Pseudo is Ultrasoft, Zval =  6.0
     Generated by new atomic code, or converted to UPF format
     Using radial grid of  737 points,  4 beta functions with: 
                l(1) =   0
                l(2) =   0
                l(3) =   1
                l(4) =   1
     Q(r) pseudized with  8 coefficients,  rinner =    0.800   0.800   0.800


     atomic species   valence    mass     pseudopotential
     H                 1.00     1.00800     H ( 1.00)
     O                 6.00    16.00000     O ( 1.00)

      6 Sym. Ops., with inversion, found



   Cartesian axes

     site n.     atom                  positions (alat units)
         1        O      tau(   1) = (  -0.4910119  -0.5205722   0.3052394  )
         2        O      tau(   2) = (   0.4910119   0.5205722   0.4984877  )
         3        O      tau(   3) = (   0.6963347  -0.1649427   0.3052394  )
         4        O      tau(   4) = (  -0.6963347   0.1649427   0.4984877  )
         5        O      tau(   5) = (  -0.2053228   0.6855149   0.3052394  )
         6        O      tau(   6) = (   0.2053228  -0.6855149   0.4984877  )
         7        O      tau(   7) = (   0.1229870   0.3303028   0.4196306  )
         8        O      tau(   8) = (  -0.1229870  -0.3303028   0.3840965  )
         9        O      tau(   9) = (  -0.3475441  -0.0586415   0.4196306  )
        10        O      tau(  10) = (   0.3475441   0.0586415   0.3840965  )
        11        O      tau(  11) = (   0.2245571  -0.2716613   0.4196306  )
        12        O      tau(  12) = (  -0.2245571   0.2716612   0.3840965  )
        13        H      tau(  13) = (  -0.5446961  -0.4126715   0.2597134  )
        14        H      tau(  14) = (   0.5446961   0.4126715   0.5440137  )
        15        H      tau(  15) = (   0.6297321  -0.2653849   0.2597134  )
        16        H      tau(  16) = (  -0.6297321   0.2653849   0.5440137  )
        17        H      tau(  17) = (  -0.0850360   0.6780564   0.2597134  )
        18        H      tau(  18) = (   0.0850360  -0.6780564   0.5440137  )
        19        H      tau(  19) = (  -0.4726389  -0.4926041   0.4288765  )
        20        H      tau(  20) = (   0.4726389   0.4926042   0.3748506  )
        21        H      tau(  21) = (   0.6629272  -0.1630152   0.4288765  )
        22        H      tau(  22) = (  -0.6629272   0.1630152   0.3748506  )
        23        H      tau(  23) = (  -0.1902883   0.6556194   0.4288765  )
        24        H      tau(  24) = (   0.1902883  -0.6556194   0.3748506  )
        25        H      tau(  25) = (   0.2676988  -0.1507235   0.4151121  )
        26        H      tau(  26) = (  -0.2676988   0.1507234   0.3886151  )
        27        H      tau(  27) = (  -0.0033191   0.3071957   0.4151121  )
        28        H      tau(  28) = (   0.0033191  -0.3071957   0.3886151  )
        29        H      tau(  29) = (  -0.2643797  -0.1564722   0.4151121  )
        30        H      tau(  30) = (   0.2643797   0.1564723   0.3886151  )
        31        H      tau(  31) = (   0.3102941  -0.3416444   0.3555952  )
        32        H      tau(  32) = (  -0.3102941   0.3416444   0.4481319  )
        33        H      tau(  33) = (   0.1407257   0.4395448   0.3555952  )
        34        H      tau(  34) = (  -0.1407257  -0.4395448   0.4481319  )
        35        H      tau(  35) = (  -0.4510198  -0.0979003   0.3555952  )
        36        H      tau(  36) = (   0.4510198   0.0979003   0.4481319  )

     number of k points=    14
                       cart. coord. in units 2pi/alat
        k(    1) = (   0.0000000   0.0000000   0.0000000), wk =   0.0312500
        k(    2) = (  -0.1498141  -0.0864952   0.3110508), wk =   0.1875000
        k(    3) = (   0.2996283   0.1729905  -0.6221017), wk =   0.0937500
        k(    4) = (  -0.1498141   0.0864952   0.6221017), wk =   0.1875000
        k(    5) = (   0.2996283   0.3459809  -0.3110508), wk =   0.1875000
        k(    6) = (   0.1498141   0.2594857   0.0000000), wk =   0.1875000
        k(    7) = (   0.2996283  -0.1729905  -1.2442034), wk =   0.0937500
        k(    8) = (   0.0000000   0.0000000   0.9331525), wk =   0.0625000
        k(    9) = (   0.4494424   0.2594857   0.0000000), wk =   0.1875000
        k(   10) = (   0.2996283   0.1729905   0.3110508), wk =   0.1875000
        k(   11) = (   0.4494424  -0.2594857  -0.9331525), wk =   0.1875000
        k(   12) = (   0.2996283  -0.3459809  -0.6221017), wk =   0.1875000
        k(   13) = (   0.0000000   0.0000000  -1.8663050), wk =   0.0312500
        k(   14) = (   0.2996283  -0.3459809   0.3110508), wk =   0.1875000

     Dense  grid:   281971 G-vectors     FFT dimensions: (  96,  96,  96)

     Estimated max dynamical RAM per process >      18.10 MB

     Estimated total dynamical RAM >       2.06 GB

     Initial potential from superposition of free atoms

     starting charge      95.9998, renormalised to      96.0000
     Starting wfcs are   72 randomized atomic wfcs

     total cpu time spent up to now is        1.6 secs

     per-process dynamical memory:    21.6 Mb

     Self-consistent Calculation

     iteration #  1     ecut=    90.00 Ry     beta= 0.70
     Davidson diagonalization with overlap
     ethr =  1.00E-02,  avg # of iterations =  2.0

     total cpu time spent up to now is        2.5 secs

     total energy              =    -412.17071683 Ry
     estimated scf accuracy    <       3.73522053 Ry

     iteration #  2     ecut=    90.00 Ry     beta= 0.70
     Davidson diagonalization with overlap
     ethr =  3.89E-03,  avg # of iterations =  3.0

     total cpu time spent up to now is        3.6 secs

     total energy              =    -413.32556781 Ry
     estimated scf accuracy    <       2.91666615 Ry

     iteration #  3     ecut=    90.00 Ry     beta= 0.70
     Davidson diagonalization with overlap
     ethr =  3.04E-03,  avg # of iterations =  2.0

     total cpu time spent up to now is        4.5 secs

     total energy              =    -413.68748343 Ry
     estimated scf accuracy    <       0.13588219 Ry

     iteration #  4     ecut=    90.00 Ry     beta= 0.70
     Davidson diagonalization with overlap
     ethr =  1.42E-04,  avg # of iterations =  4.0

     negative rho (up, down):  2.743E-08 0.000E+00

     total cpu time spent up to now is        5.9 secs

     total energy              =    -413.79424413 Ry
     estimated scf accuracy    <       0.15608653 Ry

     iteration #  5     ecut=    90.00 Ry     beta= 0.70
     Davidson diagonalization with overlap
     ethr =  1.42E-04,  avg # of iterations =  2.0

     negative rho (up, down):  4.704E-07 0.000E+00

     total cpu time spent up to now is        6.6 secs

     total energy              =    -413.79442737 Ry
     estimated scf accuracy    <       0.02518083 Ry

     iteration #  6     ecut=    90.00 Ry     beta= 0.70
     Davidson diagonalization with overlap
     ethr =  2.62E-05,  avg # of iterations =  2.0

     negative rho (up, down):  5.544E-07 0.000E+00

     total cpu time spent up to now is        7.5 secs

     total energy              =    -413.80102238 Ry
     estimated scf accuracy    <       0.00023277 Ry

     iteration #  7     ecut=    90.00 Ry     beta= 0.70
     Davidson diagonalization with overlap
     ethr =  2.42E-07,  avg # of iterations =  5.0

     negative rho (up, down):  4.867E-07 0.000E+00

     total cpu time spent up to now is        8.9 secs

     total energy              =    -413.80159224 Ry
     estimated scf accuracy    <       0.00116618 Ry

     iteration #  8     ecut=    90.00 Ry     beta= 0.70
     Davidson diagonalization with overlap
     ethr =  2.42E-07,  avg # of iterations =  1.0

     negative rho (up, down):  3.464E-07 0.000E+00

     total cpu time spent up to now is        9.5 secs

     total energy              =    -413.80109808 Ry
     estimated scf accuracy    <       0.00118445 Ry

     iteration #  9     ecut=    90.00 Ry     beta= 0.70
     Davidson diagonalization with overlap
     ethr =  2.42E-07,  avg # of iterations =  3.0

     negative rho (up, down):  3.191E-07 0.000E+00

     total cpu time spent up to now is       10.7 secs

     total energy              =    -413.80122588 Ry
     estimated scf accuracy    <       0.00003843 Ry

     iteration # 10     ecut=    90.00 Ry     beta= 0.70
     Davidson diagonalization with overlap
     ethr =  4.00E-08,  avg # of iterations =  3.0

     negative rho (up, down):  3.347E-07 0.000E+00

     total cpu time spent up to now is       11.8 secs

     total energy              =    -413.80124822 Ry
     estimated scf accuracy    <       0.00001693 Ry

     iteration # 11     ecut=    90.00 Ry     beta= 0.70
     Davidson diagonalization with overlap
     ethr =  1.76E-08,  avg # of iterations =  2.0

     negative rho (up, down):  3.464E-07 0.000E+00

     total cpu time spent up to now is       12.6 secs

     total energy              =    -413.80124726 Ry
     estimated scf accuracy    <       0.00000403 Ry

     iteration # 12     ecut=    90.00 Ry     beta= 0.70
     Davidson diagonalization with overlap
     ethr =  4.20E-09,  avg # of iterations =  2.0

     negative rho (up, down):  3.498E-07 0.000E+00

     total cpu time spent up to now is       13.5 secs

     End of self-consistent calculation

          k = 0.0000 0.0000 0.0000 ( 35275 PWs)   bands (ev):

   -20.8526 -20.5443 -20.5443 -20.3731 -20.3716 -20.3716 -20.3424 -20.3424
   -20.3192 -20.1136 -20.1136 -19.8928  -8.5721  -8.4730  -8.4403  -8.4403
    -8.4081  -8.4081  -8.1346  -8.1346  -8.1129  -8.1129  -8.0998  -8.0650
    -7.0321  -6.1160  -6.1160  -5.6862  -5.6862  -5.4569  -5.4569  -5.4358
    -5.2014  -4.6713  -4.6713  -4.0115  -3.4502  -3.4502  -3.3792  -3.3000
    -3.3000  -3.2472  -3.2025  -3.1747  -3.1747  -3.1500  -3.1053  -3.1053

          k =-0.1498-0.0865 0.3111 ( 35246 PWs)   bands (ev):

   -20.8027 -20.5680 -20.5417 -20.4715 -20.4480 -20.4024 -20.3108 -20.2677
   -20.2311 -20.1183 -20.0910 -19.9320  -8.5461  -8.4868  -8.4618  -8.4447
    -8.4038  -8.3654  -8.1736  -8.1473  -8.1238  -8.0798  -8.0507  -8.0410
    -6.8837  -6.2611  -6.1423  -5.9119  -5.7719  -5.5575  -5.3017  -5.2516
    -5.0623  -4.6758  -4.6142  -4.1512  -3.5071  -3.4634  -3.3927  -3.3437
    -3.3346  -3.2868  -3.2501  -3.1786  -3.1649  -3.1320  -3.0980  -3.0885

          k = 0.2996 0.1730-0.6221 ( 35294 PWs)   bands (ev):

   -20.6922 -20.6532 -20.5599 -20.5166 -20.4710 -20.4382 -20.2812 -20.2396
   -20.1675 -20.1057 -20.0578 -20.0057  -8.5044  -8.5043  -8.4634  -8.4568
    -8.4083  -8.3472  -8.1701  -8.1579  -8.1304  -8.0887  -8.0114  -8.0007
    -6.5719  -6.5075  -6.1779  -6.1348  -5.7400  -5.7159  -5.1847  -5.1502
    -4.7779  -4.7312  -4.5721  -4.3809  -3.5607  -3.4739  -3.4001  -3.3973
    -3.3528  -3.3060  -3.2724  -3.2141  -3.1849  -3.1205  -3.0728  -3.0672

          k =-0.1498 0.0865 0.6221 ( 35318 PWs)   bands (ev):

   -20.7080 -20.6010 -20.5948 -20.5133 -20.4842 -20.4394 -20.2735 -20.2196
   -20.1820 -20.0967 -20.0803 -19.9960  -8.5099  -8.4859  -8.4851  -8.4539
    -8.4001  -8.3464  -8.1681  -8.1610  -8.1512  -8.0521  -8.0259  -8.0043
    -6.6183  -6.3757  -6.3427  -5.9762  -5.8685  -5.6914  -5.2150  -4.9958
    -4.9322  -4.6573  -4.5905  -4.3845  -3.5516  -3.4897  -3.4042  -3.3750
    -3.3327  -3.3283  -3.2865  -3.1949  -3.1893  -3.1269  -3.0867  -3.0530

          k = 0.2996 0.3460-0.3111 ( 35274 PWs)   bands (ev):

   -20.7340 -20.6229 -20.5803 -20.5159 -20.4625 -20.4138 -20.2889 -20.2244
   -20.1562 -20.1358 -20.0623 -19.9880  -8.5218  -8.5100  -8.4504  -8.4392
    -8.4036  -8.3515  -8.2222  -8.2025  -8.1539  -8.0472  -8.0396  -8.0050
    -6.6535  -6.3646  -6.2223  -6.0180  -5.9756  -5.5334  -5.1816  -5.0379
    -4.9528  -4.6830  -4.5977  -4.3379  -3.5076  -3.4574  -3.4139  -3.3630
    -3.3265  -3.2806  -3.2513  -3.2336  -3.1762  -3.1617  -3.0716  -3.0335

          k = 0.1498 0.2595 0.0000 ( 35223 PWs)   bands (ev):

   -20.8144 -20.5907 -20.5538 -20.4625 -20.4214 -20.3686 -20.3266 -20.2771
   -20.2284 -20.1198 -20.0920 -19.9260  -8.5559  -8.4892  -8.4532  -8.4406
    -8.3858  -8.3834  -8.2211  -8.1876  -8.1243  -8.0863  -8.0595  -8.0414
    -6.8896  -6.1676  -6.1374  -5.9352  -5.8893  -5.4104  -5.3131  -5.1819
    -5.1008  -4.6962  -4.6607  -4.1150  -3.4508  -3.4358  -3.4034  -3.3316
    -3.3000  -3.2702  -3.2221  -3.2067  -3.1890  -3.1519  -3.0712  -3.0603

          k = 0.2996-0.1730-1.2442 ( 35214 PWs)   bands (ev):

   -20.7169 -20.7063 -20.5603 -20.5034 -20.4187 -20.3939 -20.2815 -20.2741
   -20.1647 -20.1372 -20.0289 -19.9953  -8.5290  -8.5104  -8.4540  -8.4435
    -8.3652  -8.3631  -8.2750  -8.2278  -8.1385  -8.0792  -8.0487  -8.0190
    -6.5378  -6.5253  -6.1652  -6.1035  -5.8117  -5.5189  -5.1582  -5.0958
    -4.9253  -4.7800  -4.4964  -4.3480  -3.4516  -3.4246  -3.4144  -3.3567
    -3.2977  -3.2690  -3.2649  -3.2167  -3.2069  -3.1524  -3.0472  -3.0306

          k = 0.0000 0.0000 0.9332 ( 35218 PWs)   bands (ev):

   -20.6511 -20.6511 -20.6397 -20.5538 -20.4405 -20.4405 -20.2312 -20.2312
   -20.1539 -20.0732 -20.0732 -20.0456  -8.5105  -8.5105  -8.4707  -8.4132
    -8.3914  -8.3914  -8.2489  -8.1865  -8.1865  -8.0174  -8.0174  -7.9937
    -6.4384  -6.4384  -6.3625  -6.1804  -5.7730  -5.7730  -4.9729  -4.9729
    -4.8201  -4.6545  -4.6545  -4.5450  -3.4685  -3.4685  -3.3982  -3.3691
    -3.3067  -3.3067  -3.2683  -3.2154  -3.2154  -3.1183  -3.1183  -3.0150

          k = 0.4494 0.2595 0.0000 ( 35246 PWs)   bands (ev):

   -20.7438 -20.6340 -20.6239 -20.5002 -20.4037 -20.3750 -20.3054 -20.2761
   -20.1724 -20.0987 -20.0655 -19.9826  -8.5303  -8.4998  -8.4779  -8.4166
    -8.3918  -8.3466  -8.2867  -8.2036  -8.1660  -8.0621  -8.0383  -8.0332
    -6.6434  -6.2904  -6.2659  -6.1600  -5.7781  -5.5067  -5.2194  -5.1207
    -4.8378  -4.7118  -4.6211  -4.3108  -3.4438  -3.4263  -3.4170  -3.3510
    -3.3249  -3.2808  -3.2454  -3.2285  -3.1825  -3.1342  -3.0813  -3.0173

          k = 0.2996 0.1730 0.3111 ( 35259 PWs)   bands (ev):

   -20.7675 -20.5991 -20.5450 -20.5196 -20.4451 -20.4106 -20.2890 -20.2690
   -20.1883 -20.1257 -20.0697 -19.9563  -8.5334  -8.4951  -8.4677  -8.4215
    -8.4129  -8.3354  -8.2244  -8.1469  -8.1237  -8.1091  -8.0599  -8.0254
    -6.7569  -6.2673  -6.2087  -5.9434  -5.9101  -5.5469  -5.2364  -5.1192
    -5.0738  -4.6438  -4.6058  -4.2202  -3.5273  -3.4493  -3.4149  -3.3855
    -3.3394  -3.2838  -3.2351  -3.2190  -3.1647  -3.1407  -3.0816  -3.0413

          k = 0.4494-0.2595-0.9332 ( 35225 PWs)   bands (ev):

   -20.6844 -20.6694 -20.5795 -20.5446 -20.4473 -20.3898 -20.3128 -20.2474
   -20.1355 -20.1192 -20.0685 -19.9863  -8.5160  -8.4989  -8.4760  -8.4201
    -8.3954  -8.3071  -8.2625  -8.1837  -8.1336  -8.1084  -8.0533  -8.0293
    -6.5244  -6.3938  -6.2544  -6.1048  -5.8646  -5.5221  -5.3245  -5.0749
    -4.8535  -4.6282  -4.6208  -4.3198  -3.5336  -3.4587  -3.4349  -3.3907
    -3.3644  -3.2985  -3.2307  -3.2026  -3.1682  -3.1474  -3.0808  -3.0082

          k = 0.2996-0.3460-0.6221 ( 35256 PWs)   bands (ev):

   -20.6719 -20.6269 -20.5769 -20.5596 -20.4650 -20.4524 -20.2663 -20.2464
   -20.1368 -20.1166 -20.0766 -19.9929  -8.5188  -8.4724  -8.4548  -8.4483
    -8.4290  -8.3108  -8.1855  -8.1790  -8.1235  -8.0960  -8.0349  -8.0263
    -6.4853  -6.4520  -6.2076  -6.1616  -5.7868  -5.7587  -5.1542  -5.1062
    -4.8069  -4.7800  -4.5164  -4.3629  -3.5828  -3.4710  -3.4366  -3.4224
    -3.3759  -3.3107  -3.2225  -3.2049  -3.1954  -3.1207  -3.1056  -3.0104

          k = 0.0000 0.0000-1.8663 ( 35172 PWs)   bands (ev):

   -20.6516 -20.5928 -20.5731 -20.5731 -20.5023 -20.5023 -20.2181 -20.2181
   -20.1475 -20.1475 -20.0815 -19.9801  -8.5218  -8.4480  -8.4480  -8.4396
    -8.4396  -8.2817  -8.2013  -8.1992  -8.1073  -8.1073  -8.0597  -8.0597
    -6.4920  -6.3522  -6.0620  -6.0620  -5.9745  -5.9745  -4.9603  -4.9603
    -4.9359  -4.9359  -4.4633  -4.3388  -3.5903  -3.4623  -3.4623  -3.4499
    -3.4499  -3.2810  -3.2011  -3.1554  -3.1554  -3.1553  -3.1553  -2.9785

          k = 0.2996-0.3460 0.3111 ( 35274 PWs)   bands (ev):

   -20.7332 -20.6318 -20.5594 -20.5308 -20.4618 -20.4135 -20.2838 -20.2238
   -20.1802 -20.1038 -20.0761 -19.9868  -8.5288  -8.4948  -8.4604  -8.4378
    -8.4023  -8.3526  -8.2313  -8.1952  -8.1509  -8.0513  -8.0312  -8.0102
    -6.6551  -6.3628  -6.2401  -5.9905  -5.9572  -5.5759  -5.2347  -4.9746
    -4.8760  -4.7451  -4.6249  -4.3212  -3.5136  -3.4366  -3.4248  -3.3622
    -3.3253  -3.2818  -3.2569  -3.2351  -3.1973  -3.1334  -3.0743  -3.0359

     highest occupied level (ev):    -2.9785

!    total energy              =    -413.80124840 Ry
     estimated scf accuracy    <       0.00000009 Ry

     The total energy is the sum of the following terms:
     one-electron contribution =    -310.92821572 Ry
     hartree contribution      =     187.42559419 Ry
     xc contribution           =    -100.03324504 Ry
     ewald contribution        =    -190.26538183 Ry

     convergence has been achieved in  12 iterations

     Forces acting on atoms (cartesian axes, Ry/au):

     atom    1 type  2   force =    -0.02230824    0.07445695    0.04587415
     atom    2 type  2   force =     0.02230824   -0.07445695   -0.04587415
     atom    3 type  2   force =    -0.05332749   -0.05654797    0.04587415
     atom    4 type  2   force =     0.05332749    0.05654797   -0.04587415
     atom    5 type  2   force =     0.07563573   -0.01790897    0.04587415
     atom    6 type  2   force =    -0.07563573    0.01790897   -0.04587415
     atom    7 type  2   force =    -0.05894801    0.04674011   -0.03629646
     atom    8 type  2   force =     0.05894801   -0.04674011    0.03629646
     atom    9 type  2   force =    -0.01100411   -0.07442053   -0.03629646
     atom   10 type  2   force =     0.01100411    0.07442053    0.03629646
     atom   11 type  2   force =     0.06995213    0.02768042   -0.03629646
     atom   12 type  2   force =    -0.06995213   -0.02768042    0.03629646
     atom   13 type  1   force =     0.03161408   -0.06149710    0.03266339
     atom   14 type  1   force =    -0.03161408    0.06149710   -0.03266339
     atom   15 type  1   force =     0.03745101    0.05812715    0.03266339
     atom   16 type  1   force =    -0.03745101   -0.05812715   -0.03266339
     atom   17 type  1   force =    -0.06906509    0.00336995    0.03266339
     atom   18 type  1   force =     0.06906509   -0.00336995   -0.03266339
     atom   19 type  1   force =    -0.01351870   -0.01276980   -0.07678424
     atom   20 type  1   force =     0.01351870    0.01276980    0.07678424
     atom   21 type  1   force =     0.01781832   -0.00532264   -0.07678424
     atom   22 type  1   force =    -0.01781832    0.00532264    0.07678424
     atom   23 type  1   force =    -0.00429962    0.01809244   -0.07678424
     atom   24 type  1   force =     0.00429962   -0.01809244    0.07678424
     atom   25 type  1   force =    -0.02187691   -0.07387367   -0.00013749
     atom   26 type  1   force =     0.02187691    0.07387367    0.00013749
     atom   27 type  1   force =     0.07491493    0.01799088   -0.00013749
     atom   28 type  1   force =    -0.07491493   -0.01799088    0.00013749
     atom   29 type  1   force =    -0.05303802    0.05588280   -0.00013749
     atom   30 type  1   force =     0.05303802   -0.05588280    0.00013749
     atom   31 type  1   force =    -0.05201667    0.04858009    0.03970150
     atom   32 type  1   force =     0.05201667   -0.04858009   -0.03970150
     atom   33 type  1   force =    -0.01606326   -0.06933780    0.03970150
     atom   34 type  1   force =     0.01606326    0.06933780   -0.03970150
     atom   35 type  1   force =     0.06807993    0.02075771    0.03970150
     atom   36 type  1   force =    -0.06807993   -0.02075771   -0.03970150

     Total force =     0.488614     Total SCF correction =     0.000183


     Computing stress (Cartesian axis) and pressure

          total   stress  (Ry/bohr**3)                   (kbar)     P=     -108.06
  -0.00075295   0.00000000   0.00000000         -110.76        0.00        0.00
  -0.00000000  -0.00075295  -0.00000000           -0.00     -110.76       -0.00
  -0.00000000  -0.00000000  -0.00069786           -0.00       -0.00     -102.66


     Writing all to output data dir ./iceII/iceII.save/ :
     XML data file, charge density, pseudopotentials, collected wavefunctions

     init_run     :      1.28s CPU      1.35s WALL (       1 calls)
     electrons    :     11.81s CPU     12.01s WALL (       1 calls)
     forces       :      0.17s CPU      0.17s WALL (       1 calls)
     stress       :      1.06s CPU      1.07s WALL (       1 calls)

     Called by init_run:
     wfcinit      :      0.38s CPU      0.39s WALL (       1 calls)
     potinit      :      0.03s CPU      0.05s WALL (       1 calls)
     hinit0       :      0.67s CPU      0.69s WALL (       1 calls)

     Called by electrons:
     c_bands      :      9.84s CPU      9.94s WALL (      12 calls)
     sum_band     :      1.45s CPU      1.47s WALL (      12 calls)
     v_of_rho     :      0.35s CPU      0.38s WALL (      13 calls)
     newd         :      0.07s CPU      0.08s WALL (      13 calls)
     mix_rho      :      0.05s CPU      0.06s WALL (      12 calls)

     Called by c_bands:
     init_us_2    :      0.20s CPU      0.21s WALL (     108 calls)
     cegterg      :      9.51s CPU      9.58s WALL (      48 calls)

     Called by *egterg:
     cdiaghg      :      0.66s CPU      0.67s WALL (     172 calls)
     h_psi        :      7.39s CPU      7.45s WALL (     176 calls)
     s_psi        :      0.35s CPU      0.35s WALL (     176 calls)
     g_psi        :      0.02s CPU      0.02s WALL (     124 calls)

     Called by h_psi:
     h_psi:calbec :      0.56s CPU      0.56s WALL (     176 calls)
     vloc_psi     :      6.43s CPU      6.48s WALL (     176 calls)
     add_vuspsi   :      0.35s CPU      0.35s WALL (     176 calls)

     General routines
     calbec       :      0.78s CPU      0.78s WALL (     244 calls)
     fft          :      0.87s CPU      0.91s WALL (     151 calls)
     ffts         :      0.02s CPU      0.03s WALL (      12 calls)
     fftw         :      6.71s CPU      6.76s WALL (   16794 calls)

     Parallel routines

     PWSCF        :     14.61s CPU     15.28s WALL


   This run was terminated on:  18: 7:40  23Mar2026            

=------------------------------------------------------------------------------=
   JOB DONE.
=------------------------------------------------------------------------------=
