
     Program PWSCF v.7.3.1 starts on 31Mar2026 at 20:51:10 

     This program is part of the open-source Quantum ESPRESSO suite
     for quantum simulation of materials; please cite
         "P. Giannozzi et al., J. Phys.:Condens. Matter 21 395502 (2009);
         "P. Giannozzi et al., J. Phys.:Condens. Matter 29 465901 (2017);
         "P. Giannozzi et al., J. Chem. Phys. 152 154105 (2020);
          URL http://www.quantum-espresso.org", 
     in publications or presentations arising from this work. More details at
     http://www.quantum-espresso.org/quote

     Parallel version (MPI), running on   128 processors

     MPI processes distributed on     1 nodes
     498298 MiB available memory on the printing compute node when the environment starts

     Waiting for input...
     Reading input from standard input

     Current dimensions of program PWSCF are:
     Max number of different atomic species (ntypx) = 10
     Max number of k-points (npk) =  40000
     Max angular momentum in pseudopotentials (lmaxx) =  4

     File ./iceII/iceII.update deleted, as requested

     File ./iceII/iceII.bfgs deleted, as requested

     K-points division:     npool     =       4
     R & G space division:  proc/nbgrp/npool/nimage =      32
     Subspace diagonalization in iterative solution of the eigenvalue problem:
     a serial algorithm will be used


     Parallelization info
     --------------------
     sticks:   dense  smooth     PW     G-vecs:    dense   smooth      PW
     Min         200     200     58                 8811     8811    1385
     Max         201     201     59                 8812     8812    1386
     Sum        6405    6405   1865               281971   281971   44347

     Using Slab Decomposition



     bravais-lattice index     =            5
     lattice parameter (alat)  =      15.5842  a.u.
     unit-cell volume          =    2445.3740 (a.u.)^3
     number of atoms/cell      =           36
     number of atomic types    =            2
     number of electrons       =        96.00
     number of Kohn-Sham states=           48
     kinetic-energy cutoff     =      90.0000  Ry
     charge density cutoff     =     360.0000  Ry
     scf convergence threshold =      1.0E-07
     mixing beta               =       0.7000
     number of iterations used =            8  plain     mixing
     energy convergence thresh.=      1.0E-04
     force convergence thresh. =      1.0E-04
     Exchange-correlation=  SLA  PW   PBE  PBE
                           (   1   4   3   4   0   0   0)
     nstep                     =           50


     celldm(1)=  15.584192  celldm(2)=   0.000000  celldm(3)=   0.000000
     celldm(4)=  -0.392337  celldm(5)=   0.000000  celldm(6)=   0.000000

     crystal axes: (cart. coord. in units of alat)
               a(1) = (   0.834367  -0.481722   0.267909 )  
               a(2) = (   0.000000   0.963444   0.267909 )  
               a(3) = (  -0.834367  -0.481722   0.267909 )  

     reciprocal axes: (cart. coord. in units 2 pi/alat)
               b(1) = (  0.599257 -0.345981  1.244203 )  
               b(2) = ( -0.000000  0.691962  1.244203 )  
               b(3) = ( -0.599257 -0.345981  1.244203 )  


     PseudoPot. # 1 for H  read from file:
     ./H.pbe-van_ak.UPF
     MD5 check sum: 077eb6d537518a38cb46c6de387227b7
     Pseudo is Ultrasoft, Zval =  1.0
     Generated by new atomic code, or converted to UPF format
     Using radial grid of  615 points,  1 beta functions with: 
                l(1) =   0
     Q(r) pseudized with  8 coefficients,  rinner =    0.800

     PseudoPot. # 2 for O  read from file:
     ./O.pbe-van_ak.UPF
     MD5 check sum: 78c19812648e8988a0fe644b0f25305e
     Pseudo is Ultrasoft, Zval =  6.0
     Generated by new atomic code, or converted to UPF format
     Using radial grid of  737 points,  4 beta functions with: 
                l(1) =   0
                l(2) =   0
                l(3) =   1
                l(4) =   1
     Q(r) pseudized with  8 coefficients,  rinner =    0.800   0.800   0.800


     atomic species   valence    mass     pseudopotential
     H                 1.00     1.00800     H ( 1.00)
     O                 6.00    16.00000     O ( 1.00)

      6 Sym. Ops., with inversion, found



   Cartesian axes

     site n.     atom                  positions (alat units)
         1        O      tau(   1) = (  -0.4847673  -0.5197781   0.3083633  )
         2        O      tau(   2) = (   0.4847673   0.5197782   0.4953638  )
         3        O      tau(   3) = (   0.6925247  -0.1599317   0.3083633  )
         4        O      tau(   4) = (  -0.6925248   0.1599317   0.4953638  )
         5        O      tau(   5) = (  -0.2077574   0.6797099   0.3083633  )
         6        O      tau(   6) = (   0.2077574  -0.6797099   0.4953638  )
         7        O      tau(   7) = (   0.1218176   0.3323883   0.4179381  )
         8        O      tau(   8) = (  -0.1218176  -0.3323883   0.3857890  )
         9        O      tau(   9) = (  -0.3487655  -0.0606970   0.4179381  )
        10        O      tau(  10) = (   0.3487655   0.0606970   0.3857890  )
        11        O      tau(  11) = (   0.2269479  -0.2716913   0.4179381  )
        12        O      tau(  12) = (  -0.2269479   0.2716912   0.3857890  )
        13        H      tau(  13) = (  -0.5381668  -0.4032014   0.2796970  )
        14        H      tau(  14) = (   0.5381668   0.4032014   0.5240301  )
        15        H      tau(  15) = (   0.6182661  -0.2644654   0.2796970  )
        16        H      tau(  16) = (  -0.6182661   0.2644654   0.5240301  )
        17        H      tau(  17) = (  -0.0800993   0.6676668   0.2796970  )
        18        H      tau(  18) = (   0.0800993  -0.6676668   0.5240301  )
        19        H      tau(  19) = (  -0.4872704  -0.4817221   0.4326731  )
        20        H      tau(  20) = (   0.4872704   0.4817221   0.3710540  )
        21        H      tau(  21) = (   0.6608188  -0.1811275   0.4326731  )
        22        H      tau(  22) = (  -0.6608188   0.1811275   0.3710540  )
        23        H      tau(  23) = (  -0.1735484   0.6628496   0.4326731  )
        24        H      tau(  24) = (   0.1735484  -0.6628496   0.3710540  )
        25        H      tau(  25) = (   0.2703349  -0.1502973   0.4058822  )
        26        H      tau(  26) = (  -0.2703350   0.1502973   0.3978449  )
        27        H      tau(  27) = (  -0.0050062   0.3092656   0.4058822  )
        28        H      tau(  28) = (   0.0050062  -0.3092656   0.3978449  )
        29        H      tau(  29) = (  -0.2653287  -0.1589683   0.4058822  )
        30        H      tau(  30) = (   0.2653287   0.1589683   0.3978449  )
        31        H      tau(  31) = (   0.3178939  -0.3347969   0.3493534  )
        32        H      tau(  32) = (  -0.3178939   0.3347969   0.4543737  )
        33        H      tau(  33) = (   0.1309957   0.4427026   0.3493534  )
        34        H      tau(  34) = (  -0.1309956  -0.4427026   0.4543737  )
        35        H      tau(  35) = (  -0.4488895  -0.1079057   0.3493534  )
        36        H      tau(  36) = (   0.4488895   0.1079057   0.4543737  )

     number of k points=    14
                       cart. coord. in units 2pi/alat
        k(    1) = (   0.0000000   0.0000000   0.0000000), wk =   0.0312500
        k(    2) = (  -0.1498141  -0.0864952   0.3110508), wk =   0.1875000
        k(    3) = (   0.2996283   0.1729905  -0.6221017), wk =   0.0937500
        k(    4) = (  -0.1498141   0.0864952   0.6221017), wk =   0.1875000
        k(    5) = (   0.2996283   0.3459809  -0.3110508), wk =   0.1875000
        k(    6) = (   0.1498141   0.2594857   0.0000000), wk =   0.1875000
        k(    7) = (   0.2996283  -0.1729905  -1.2442034), wk =   0.0937500
        k(    8) = (   0.0000000   0.0000000   0.9331525), wk =   0.0625000
        k(    9) = (   0.4494424   0.2594857   0.0000000), wk =   0.1875000
        k(   10) = (   0.2996283   0.1729905   0.3110508), wk =   0.1875000
        k(   11) = (   0.4494424  -0.2594857  -0.9331525), wk =   0.1875000
        k(   12) = (   0.2996283  -0.3459809  -0.6221017), wk =   0.1875000
        k(   13) = (   0.0000000   0.0000000  -1.8663050), wk =   0.0312500
        k(   14) = (   0.2996283  -0.3459809   0.3110508), wk =   0.1875000

     Dense  grid:   281971 G-vectors     FFT dimensions: (  96,  96,  96)

     Estimated max dynamical RAM per process >      18.10 MB

     Estimated total dynamical RAM >       2.06 GB

     Initial potential from superposition of free atoms

     starting charge      95.9998, renormalised to      96.0000
     Starting wfcs are   72 randomized atomic wfcs

     total cpu time spent up to now is        1.6 secs

     per-process dynamical memory:    21.6 Mb

     Self-consistent Calculation

     iteration #  1     ecut=    90.00 Ry     beta= 0.70
     Davidson diagonalization with overlap
     ethr =  1.00E-02,  avg # of iterations =  2.0

     total cpu time spent up to now is        2.5 secs

     total energy              =    -412.08163523 Ry
     estimated scf accuracy    <       3.58103898 Ry

     iteration #  2     ecut=    90.00 Ry     beta= 0.70
     Davidson diagonalization with overlap
     ethr =  3.73E-03,  avg # of iterations =  3.0

     total cpu time spent up to now is        3.6 secs

     total energy              =    -413.18487674 Ry
     estimated scf accuracy    <       2.92112293 Ry

     iteration #  3     ecut=    90.00 Ry     beta= 0.70
     Davidson diagonalization with overlap
     ethr =  3.04E-03,  avg # of iterations =  2.0

     negative rho (up, down):  1.625E-07 0.000E+00

     total cpu time spent up to now is        4.5 secs

     total energy              =    -413.54150538 Ry
     estimated scf accuracy    <       0.14359452 Ry

     iteration #  4     ecut=    90.00 Ry     beta= 0.70
     Davidson diagonalization with overlap
     ethr =  1.50E-04,  avg # of iterations =  4.0

     negative rho (up, down):  6.238E-07 0.000E+00

     total cpu time spent up to now is        5.8 secs

     total energy              =    -413.65351188 Ry
     estimated scf accuracy    <       0.15430648 Ry

     iteration #  5     ecut=    90.00 Ry     beta= 0.70
     Davidson diagonalization with overlap
     ethr =  1.50E-04,  avg # of iterations =  1.1

     negative rho (up, down):  1.025E-06 0.000E+00

     total cpu time spent up to now is        6.5 secs

     total energy              =    -413.65419941 Ry
     estimated scf accuracy    <       0.02822179 Ry

     iteration #  6     ecut=    90.00 Ry     beta= 0.70
     Davidson diagonalization with overlap
     ethr =  2.94E-05,  avg # of iterations =  2.0

     negative rho (up, down):  1.222E-06 0.000E+00

     total cpu time spent up to now is        7.5 secs

     total energy              =    -413.65800227 Ry
     estimated scf accuracy    <       0.00250915 Ry

     iteration #  7     ecut=    90.00 Ry     beta= 0.70
     Davidson diagonalization with overlap
     ethr =  2.61E-06,  avg # of iterations =  2.0

     negative rho (up, down):  1.236E-06 0.000E+00

     total cpu time spent up to now is        8.4 secs

     total energy              =    -413.65893134 Ry
     estimated scf accuracy    <       0.00009685 Ry

     iteration #  8     ecut=    90.00 Ry     beta= 0.70
     Davidson diagonalization with overlap
     ethr =  1.01E-07,  avg # of iterations =  6.0

     negative rho (up, down):  1.191E-06 0.000E+00

     total cpu time spent up to now is        9.9 secs

     total energy              =    -413.65893241 Ry
     estimated scf accuracy    <       0.00065856 Ry

     iteration #  9     ecut=    90.00 Ry     beta= 0.70
     Davidson diagonalization with overlap
     ethr =  1.01E-07,  avg # of iterations =  2.0

     negative rho (up, down):  1.123E-06 0.000E+00

     total cpu time spent up to now is       10.7 secs

     total energy              =    -413.65882443 Ry
     estimated scf accuracy    <       0.00030795 Ry

     iteration # 10     ecut=    90.00 Ry     beta= 0.70
     Davidson diagonalization with overlap
     ethr =  1.01E-07,  avg # of iterations =  3.0

     negative rho (up, down):  1.109E-06 0.000E+00

     total cpu time spent up to now is       11.7 secs

     total energy              =    -413.65886707 Ry
     estimated scf accuracy    <       0.00001193 Ry

     iteration # 11     ecut=    90.00 Ry     beta= 0.70
     Davidson diagonalization with overlap
     ethr =  1.24E-08,  avg # of iterations =  3.0

     negative rho (up, down):  1.107E-06 0.000E+00

     total cpu time spent up to now is       12.8 secs

     total energy              =    -413.65887208 Ry
     estimated scf accuracy    <       0.00000028 Ry

     iteration # 12     ecut=    90.00 Ry     beta= 0.70
     Davidson diagonalization with overlap
     ethr =  2.95E-10,  avg # of iterations =  4.5

     negative rho (up, down):  1.116E-06 0.000E+00

     total cpu time spent up to now is       14.1 secs

     total energy              =    -413.65887217 Ry
     estimated scf accuracy    <       0.00000044 Ry

     iteration # 13     ecut=    90.00 Ry     beta= 0.70
     Davidson diagonalization with overlap
     ethr =  2.95E-10,  avg # of iterations =  3.0

     negative rho (up, down):  1.117E-06 0.000E+00

     total cpu time spent up to now is       15.2 secs

     End of self-consistent calculation

          k = 0.0000 0.0000 0.0000 ( 35275 PWs)   bands (ev):

   -20.8582 -20.5359 -20.5359 -20.3710 -20.3710 -20.3476 -20.3476 -20.3438
   -20.3365 -20.1219 -20.1219 -19.8961  -8.3715  -8.2053  -8.1470  -8.1470
    -8.1085  -8.1085  -7.6928  -7.5585  -7.5585  -7.3649  -7.3649  -7.2668
    -7.2032  -6.5025  -6.5025  -6.0191  -6.0191  -5.9240  -5.9240  -5.6897
    -5.5398  -4.9630  -4.9630  -4.3698  -3.4593  -3.4593  -3.3782  -3.3097
    -3.2755  -3.2755  -3.1584  -3.1526  -3.1526  -3.1412  -3.1041  -3.1041

          k =-0.1498-0.0865 0.3111 ( 35246 PWs)   bands (ev):

   -20.8052 -20.5660 -20.5286 -20.4745 -20.4542 -20.4028 -20.3003 -20.2682
   -20.2301 -20.1257 -20.0959 -19.9393  -8.3274  -8.2615  -8.1942  -8.1592
    -8.0879  -8.0349  -7.6789  -7.5254  -7.5235  -7.3954  -7.3005  -7.2669
    -7.1108  -6.6220  -6.5218  -6.2846  -6.0041  -5.9166  -5.7774  -5.5944
    -5.5413  -4.9574  -4.9013  -4.4909  -3.5428  -3.4874  -3.3943  -3.3460
    -3.3041  -3.2807  -3.2458  -3.1890  -3.1451  -3.1061  -3.0879  -3.0488

          k = 0.2996 0.1730-0.6221 ( 35294 PWs)   bands (ev):

   -20.6737 -20.6633 -20.5482 -20.5445 -20.4564 -20.4522 -20.2568 -20.2547
   -20.1325 -20.1253 -20.0449 -20.0417  -8.3122  -8.2616  -8.1875  -8.1736
    -8.0843  -8.0391  -7.6306  -7.5298  -7.5006  -7.4029  -7.2386  -7.2364
    -6.9264  -6.8051  -6.5706  -6.4147  -6.0157  -5.9440  -5.7822  -5.6448
    -5.1989  -5.0608  -4.8476  -4.6408  -3.6185  -3.4994  -3.4155  -3.3861
    -3.3329  -3.3213  -3.2477  -3.2066  -3.1802  -3.0795  -3.0718  -3.0115

          k =-0.1498 0.0865 0.6221 ( 35318 PWs)   bands (ev):

   -20.6989 -20.6015 -20.5974 -20.5125 -20.4930 -20.4450 -20.2635 -20.2050
   -20.1807 -20.0958 -20.0816 -20.0191  -8.3181  -8.2416  -8.2268  -8.1321
    -8.1042  -8.0298  -7.6378  -7.5535  -7.5156  -7.3284  -7.2754  -7.2330
    -6.9295  -6.7526  -6.6769  -6.2821  -6.1388  -5.9824  -5.7154  -5.5413
    -5.3562  -4.9285  -4.9059  -4.6458  -3.6026  -3.5308  -3.4059  -3.3683
    -3.3430  -3.3015  -3.2711  -3.2008  -3.1762  -3.0876  -3.0732  -3.0072

          k = 0.2996 0.3460-0.3111 ( 35274 PWs)   bands (ev):

   -20.7353 -20.6240 -20.5576 -20.5241 -20.4772 -20.4219 -20.2693 -20.1961
   -20.1802 -20.1277 -20.0771 -20.0001  -8.3211  -8.3024  -8.1734  -8.1561
    -8.1072  -8.0288  -7.6519  -7.6026  -7.5027  -7.3036  -7.2741  -7.2252
    -7.0328  -6.7929  -6.5918  -6.2881  -6.2662  -5.8584  -5.6916  -5.4622
    -5.2679  -5.0600  -4.8836  -4.6282  -3.5408  -3.4829  -3.4182  -3.3584
    -3.3188  -3.2809  -3.2289  -3.2235  -3.1618  -3.1237  -3.0776  -2.9996

          k = 0.1498 0.2595 0.0000 ( 35223 PWs)   bands (ev):

   -20.8195 -20.5850 -20.5469 -20.4546 -20.4325 -20.3729 -20.3154 -20.2629
   -20.2332 -20.1290 -20.1047 -19.9304  -8.3593  -8.2687  -8.1898  -8.1585
    -8.0624  -8.0555  -7.7089  -7.6008  -7.4517  -7.3698  -7.3260  -7.2465
    -7.2053  -6.6200  -6.5117  -6.2699  -6.1700  -5.8047  -5.6990  -5.5748
    -5.4248  -5.0238  -4.9369  -4.4607  -3.4583  -3.4464  -3.4050  -3.3301
    -3.2999  -3.2806  -3.1957  -3.1765  -3.1573  -3.1457  -3.0682  -3.0579

          k = 0.2996-0.1730-1.2442 ( 35214 PWs)   bands (ev):

   -20.7253 -20.7022 -20.5545 -20.4938 -20.4302 -20.3951 -20.2730 -20.2535
   -20.1657 -20.1547 -20.0248 -20.0141  -8.3410  -8.3121  -8.2057  -8.1741
    -8.0378  -8.0328  -7.6932  -7.6467  -7.4267  -7.3934  -7.2481  -7.2146
    -6.9999  -6.9530  -6.5679  -6.3592  -6.0895  -5.9166  -5.6044  -5.3646
    -5.2787  -5.1770  -4.8108  -4.6444  -3.4650  -3.4320  -3.4260  -3.3546
    -3.2996  -3.2645  -3.2389  -3.1872  -3.1768  -3.1474  -3.0431  -3.0279

          k = 0.0000 0.0000 0.9332 ( 35218 PWs)   bands (ev):

   -20.6577 -20.6577 -20.6046 -20.5708 -20.4486 -20.4486 -20.2137 -20.2137
   -20.1153 -20.1076 -20.0762 -20.0762  -8.3035  -8.3035  -8.1926  -8.1081
    -8.1081  -8.0819  -7.6568  -7.5774  -7.5774  -7.2290  -7.2290  -7.2004
    -6.8783  -6.8661  -6.8661  -6.3100  -6.0710  -6.0710  -5.5184  -5.3441
    -5.3441  -4.9397  -4.9397  -4.7763  -3.4964  -3.4964  -3.3978  -3.3606
    -3.2951  -3.2951  -3.2561  -3.2012  -3.2012  -3.1123  -3.1123  -2.9811

          k = 0.4494 0.2595 0.0000 ( 35246 PWs)   bands (ev):

   -20.7479 -20.6280 -20.6271 -20.4952 -20.3935 -20.3873 -20.2879 -20.2797
   -20.1666 -20.1023 -20.0791 -19.9923  -8.3383  -8.3012  -8.2503  -8.1225
    -8.0738  -8.0168  -7.7087  -7.6082  -7.5001  -7.3097  -7.2719  -7.2299
    -7.0775  -6.7676  -6.7011  -6.3148  -6.1188  -5.9067  -5.5200  -5.4858
    -5.3162  -5.0293  -4.9021  -4.6215  -3.4538  -3.4468  -3.4188  -3.3577
    -3.3150  -3.2722  -3.2138  -3.1965  -3.1618  -3.1293  -3.0828  -3.0139

          k = 0.2996 0.1730 0.3111 ( 35259 PWs)   bands (ev):

   -20.7693 -20.5965 -20.5367 -20.5174 -20.4546 -20.4143 -20.2789 -20.2533
   -20.2069 -20.1157 -20.0801 -19.9668  -8.3385  -8.2886  -8.2173  -8.1204
    -8.1091  -7.9960  -7.6804  -7.5828  -7.4314  -7.3724  -7.3380  -7.2623
    -7.0538  -6.6354  -6.4922  -6.4056  -6.1964  -5.9326  -5.6819  -5.5162
    -5.3568  -5.0270  -4.8859  -4.5331  -3.5563  -3.4892  -3.4325  -3.3854
    -3.3142  -3.2819  -3.2241  -3.2010  -3.1380  -3.1020  -3.0579  -3.0390

          k = 0.4494-0.2595-0.9332 ( 35225 PWs)   bands (ev):

   -20.6789 -20.6739 -20.5759 -20.5470 -20.4474 -20.3906 -20.3074 -20.2450
   -20.1445 -20.1025 -20.0678 -20.0094  -8.3632  -8.2800  -8.2454  -8.1228
    -8.0839  -7.9779  -7.7108  -7.5396  -7.4454  -7.3983  -7.2879  -7.2683
    -6.8547  -6.8158  -6.5547  -6.4101  -6.2533  -6.0046  -5.6482  -5.4069
    -5.1285  -5.1156  -4.9305  -4.5864  -3.5611  -3.5012  -3.4736  -3.3843
    -3.3571  -3.2927  -3.1877  -3.1682  -3.1505  -3.1137  -3.0588  -3.0116

          k = 0.2996-0.3460-0.6221 ( 35256 PWs)   bands (ev):

   -20.6507 -20.6398 -20.5690 -20.5677 -20.4688 -20.4661 -20.2451 -20.2443
   -20.1337 -20.1303 -20.0399 -20.0384  -8.3759  -8.2097  -8.1832  -8.1679
    -8.1387  -7.9834  -7.6586  -7.5440  -7.4358  -7.3916  -7.2745  -7.2696
    -6.8224  -6.7069  -6.5811  -6.4583  -6.1964  -6.1598  -5.5833  -5.5168
    -5.1341  -5.0888  -4.9568  -4.5729  -3.6448  -3.5124  -3.4732  -3.4145
    -3.3762  -3.2722  -3.2203  -3.1892  -3.1758  -3.0751  -3.0619  -2.9983

          k = 0.0000 0.0000-1.8663 ( 35172 PWs)   bands (ev):

   -20.6292 -20.6194 -20.5478 -20.5478 -20.5294 -20.5294 -20.1860 -20.1860
   -20.1795 -20.1795 -20.0323 -20.0272  -8.4145  -8.1840  -8.1840  -8.1584
    -8.1584  -7.9558  -7.6985  -7.5352  -7.3590  -7.3590  -7.3269  -7.3269
    -6.6919  -6.4974  -6.4951  -6.4951  -6.4479  -6.4479  -5.4033  -5.4033
    -5.1501  -5.1501  -4.9989  -4.5278  -3.6705  -3.5116  -3.5116  -3.4402
    -3.4402  -3.2320  -3.2117  -3.1462  -3.1462  -3.0847  -3.0847  -2.9786

          k = 0.2996-0.3460 0.3111 ( 35274 PWs)   bands (ev):

   -20.7350 -20.6265 -20.5494 -20.5312 -20.4755 -20.4224 -20.2683 -20.1982
   -20.1811 -20.1259 -20.0762 -20.0008  -8.3347  -8.2737  -8.2049  -8.1568
    -8.0765  -8.0389  -7.6873  -7.5796  -7.4804  -7.3325  -7.2483  -7.2414
    -7.0302  -6.7369  -6.6647  -6.3457  -6.1266  -5.9094  -5.7626  -5.3926
    -5.2566  -5.0422  -4.9366  -4.6138  -3.5462  -3.4612  -3.4334  -3.3552
    -3.3196  -3.2860  -3.2288  -3.2235  -3.1768  -3.1005  -3.0781  -3.0059

     highest occupied level (ev):    -2.9786

!    total energy              =    -413.65887227 Ry
     estimated scf accuracy    <       0.00000002 Ry

     The total energy is the sum of the following terms:
     one-electron contribution =    -311.29400444 Ry
     hartree contribution      =     187.56224569 Ry
     xc contribution           =     -99.79070582 Ry
     ewald contribution        =    -190.13640770 Ry

     convergence has been achieved in  13 iterations

     Forces acting on atoms (cartesian axes, Ry/au):

     atom    1 type  2   force =    -0.06082064    0.13608557    0.08014568
     atom    2 type  2   force =     0.06082064   -0.13608557   -0.08014568
     atom    3 type  2   force =    -0.08744324   -0.12071500    0.08014568
     atom    4 type  2   force =     0.08744324    0.12071500   -0.08014568
     atom    5 type  2   force =     0.14826388   -0.01537057    0.08014568
     atom    6 type  2   force =    -0.14826388    0.01537057   -0.08014568
     atom    7 type  2   force =    -0.08993224    0.06403481   -0.05896743
     atom    8 type  2   force =     0.08993224   -0.06403481    0.05896743
     atom    9 type  2   force =    -0.01048965   -0.10990102   -0.05896743
     atom   10 type  2   force =     0.01048965    0.10990102    0.05896743
     atom   11 type  2   force =     0.10042190    0.04586620   -0.05896743
     atom   12 type  2   force =    -0.10042190   -0.04586620    0.05896743
     atom   13 type  1   force =     0.03124233   -0.08486626   -0.02539251
     atom   14 type  1   force =    -0.03124233    0.08486626    0.02539251
     atom   15 type  1   force =     0.05787518    0.06948978   -0.02539251
     atom   16 type  1   force =    -0.05787518   -0.06948978    0.02539251
     atom   17 type  1   force =    -0.08911750    0.01537648   -0.02539251
     atom   18 type  1   force =     0.08911750   -0.01537648    0.02539251
     atom   19 type  1   force =     0.02561932   -0.05703147   -0.06322042
     atom   20 type  1   force =    -0.02561932    0.05703147    0.06322042
     atom   21 type  1   force =     0.03658105    0.05070272   -0.06322042
     atom   22 type  1   force =    -0.03658105   -0.05070272    0.06322042
     atom   23 type  1   force =    -0.06220036    0.00632876   -0.06322042
     atom   24 type  1   force =     0.06220036   -0.00632876    0.06322042
     atom   25 type  1   force =    -0.03368753   -0.07393773    0.01579631
     atom   26 type  1   force =     0.03368753    0.07393773   -0.01579631
     atom   27 type  1   force =     0.08087572    0.00779461    0.01579631
     atom   28 type  1   force =    -0.08087572   -0.00779461   -0.01579631
     atom   29 type  1   force =    -0.04718819    0.06614312    0.01579631
     atom   30 type  1   force =     0.04718819   -0.06614312   -0.01579631
     atom   31 type  1   force =    -0.07538151    0.03206681    0.05287428
     atom   32 type  1   force =     0.07538151   -0.03206681   -0.05287428
     atom   33 type  1   force =     0.00992009   -0.08131571    0.05287428
     atom   34 type  1   force =    -0.00992009    0.08131571   -0.05287428
     atom   35 type  1   force =     0.06546143    0.04924890    0.05287428
     atom   36 type  1   force =    -0.06546143   -0.04924890   -0.05287428

     Total force =     0.681441     Total SCF correction =     0.000151


     Computing stress (Cartesian axis) and pressure

          total   stress  (Ry/bohr**3)                   (kbar)     P=     -115.63
  -0.00086492   0.00000000  -0.00000000         -127.23        0.00       -0.00
  -0.00000000  -0.00086492  -0.00000000           -0.00     -127.23       -0.00
  -0.00000000  -0.00000000  -0.00062837           -0.00       -0.00      -92.44


     BFGS Geometry Optimization
     Energy error            =      0.0E+00 Ry
     Gradient error          =      1.5E-01 Ry/Bohr

     number of scf cycles    =   1
     number of bfgs steps    =   0

     energy             new  =    -413.6588722653 Ry

     new trust radius        =       0.1692387713 bohr
     new conv_thr            =       0.0000001000 Ry


ATOMIC_POSITIONS (crystal)
O                0.2740387051        0.0364410395        0.8597161283
O                0.7259612949        0.9635589715        0.1402838417
O                0.8597161283        0.2740387051        0.0364410395
O                0.1402838417        0.7259612949        0.9635589715
O                0.0364410395        0.8597161283        0.2740387051
O                0.9635589715        0.1402838417        0.7259612949
O                0.4684123991        0.7481354299        0.3293287028
O                0.5315876009        0.2518645701        0.6706712672
O                0.3293287028        0.4684123991        0.7481354299
O                0.6706712672        0.5315876009        0.2518645701
O                0.7481354299        0.3293287028        0.4684123991
O                0.2518645701        0.6706712672        0.5315876009
H                0.1660581838        0.0632045313        0.8086554660
H                0.8339418022        0.9367954607        0.1913445340
H                0.8086554660        0.1660581838        0.0632045313
H                0.1913445340        0.8339418022        0.9367954607
H                0.0632045313        0.8086554660        0.1660581838
H                0.9367954607        0.1913445340        0.8339418022
H                0.4102039038        0.1974203516        0.9922336234
H                0.5897960962        0.8025796634        0.0077663556
H                0.9922336234        0.4102039038        0.1974203516
H                0.0077663556        0.5897960962        0.8025796634
H                0.1974203516        0.9922336234        0.4102039038
H                0.8025796634        0.0077663556        0.5897960962
H                0.7206072126        0.3989781832        0.3991980042
H                0.2793927874        0.6010217868        0.6008020258
H                0.3991980042        0.7206072126        0.3989781832
H                0.6008020258        0.2793927874        0.6010217868
H                0.3989781832        0.3991980042        0.7206072126
H                0.6010217868        0.6008020258        0.2793927874
H                0.7416108076        0.2086451611        0.3664080922
H                0.2583891924        0.7913548239        0.6335919078
H                0.3664080922        0.7416108076        0.2086451611
H                0.6335919078        0.2583891924        0.7913548239
H                0.2086451611        0.3664080922        0.7416108076
H                0.7913548239        0.6335919078        0.2583891924



     Writing config-only to output data dir ./iceII/iceII.save/ :
     XML data file
     NEW-OLD atomic charge density approx. for the potential

     negative rho (up, down):  1.551E-06 0.000E+00

     total cpu time spent up to now is       16.6 secs

     per-process dynamical memory:    34.4 Mb

     Self-consistent Calculation

     iteration #  1     ecut=    90.00 Ry     beta= 0.70
     Davidson diagonalization with overlap
     ethr =  1.00E-06,  avg # of iterations = 10.1

     negative rho (up, down):  2.115E-06 0.000E+00

     total cpu time spent up to now is       19.3 secs

     total energy              =    -413.83596474 Ry
     estimated scf accuracy    <       0.16766853 Ry

     iteration #  2     ecut=    90.00 Ry     beta= 0.70
     Davidson diagonalization with overlap
     ethr =  1.75E-04,  avg # of iterations =  3.0

     negative rho (up, down):  1.787E-06 0.000E+00

     total cpu time spent up to now is       20.4 secs

     total energy              =    -413.88160124 Ry
     estimated scf accuracy    <       0.08125593 Ry

     iteration #  3     ecut=    90.00 Ry     beta= 0.70
     Davidson diagonalization with overlap
     ethr =  8.46E-05,  avg # of iterations =  2.0

     negative rho (up, down):  2.021E-06 0.000E+00

     total cpu time spent up to now is       21.3 secs

     total energy              =    -413.89453143 Ry
     estimated scf accuracy    <       0.00197685 Ry

     iteration #  4     ecut=    90.00 Ry     beta= 0.70
     Davidson diagonalization with overlap
     ethr =  2.06E-06,  avg # of iterations =  4.0

     negative rho (up, down):  2.399E-06 0.000E+00

     total cpu time spent up to now is       22.6 secs

     total energy              =    -413.89607564 Ry
     estimated scf accuracy    <       0.00301198 Ry

     iteration #  5     ecut=    90.00 Ry     beta= 0.70
     Davidson diagonalization with overlap
     ethr =  2.06E-06,  avg # of iterations =  2.0

     negative rho (up, down):  2.602E-06 0.000E+00

     total cpu time spent up to now is       23.5 secs

     total energy              =    -413.89643536 Ry
     estimated scf accuracy    <       0.00011153 Ry

     iteration #  6     ecut=    90.00 Ry     beta= 0.70
     Davidson diagonalization with overlap
     ethr =  1.16E-07,  avg # of iterations =  4.1

     negative rho (up, down):  2.565E-06 0.000E+00

     total cpu time spent up to now is       24.9 secs

     total energy              =    -413.89650047 Ry
     estimated scf accuracy    <       0.00014529 Ry

     iteration #  7     ecut=    90.00 Ry     beta= 0.70
     Davidson diagonalization with overlap
     ethr =  1.16E-07,  avg # of iterations =  2.0

     negative rho (up, down):  2.534E-06 0.000E+00

     total cpu time spent up to now is       25.8 secs

     total energy              =    -413.89652073 Ry
     estimated scf accuracy    <       0.00000442 Ry

     iteration #  8     ecut=    90.00 Ry     beta= 0.70
     Davidson diagonalization with overlap
     ethr =  4.61E-09,  avg # of iterations =  4.1

     negative rho (up, down):  2.537E-06 0.000E+00

     total cpu time spent up to now is       27.1 secs

     total energy              =    -413.89652414 Ry
     estimated scf accuracy    <       0.00000146 Ry

     iteration #  9     ecut=    90.00 Ry     beta= 0.70
     Davidson diagonalization with overlap
     ethr =  1.52E-09,  avg # of iterations =  2.0

     negative rho (up, down):  2.542E-06 0.000E+00

     total cpu time spent up to now is       27.8 secs

     total energy              =    -413.89652409 Ry
     estimated scf accuracy    <       0.00000049 Ry

     iteration # 10     ecut=    90.00 Ry     beta= 0.70
     Davidson diagonalization with overlap
     ethr =  5.10E-10,  avg # of iterations =  2.0

     negative rho (up, down):  2.547E-06 0.000E+00

     total cpu time spent up to now is       28.6 secs

     End of self-consistent calculation

          k = 0.0000 0.0000 0.0000 ( 35275 PWs)   bands (ev):

   -21.6357 -21.3854 -21.3854 -21.2202 -21.2202 -21.1958 -21.1860 -21.1846
   -21.1846 -20.9899 -20.9899 -20.8213  -9.2670  -9.1346  -9.1011  -9.1011
    -9.0611  -9.0611  -8.6391  -8.6391  -8.5597  -8.5597  -8.5562  -8.4630
    -7.1524  -6.3724  -6.3724  -5.8418  -5.8418  -5.8322  -5.8322  -5.6180
    -5.5824  -5.0057  -5.0057  -4.4768  -3.6308  -3.6308  -3.6235  -3.4621
    -3.4621  -3.4284  -3.3358  -3.3024  -3.3024  -3.2974  -3.2362  -3.2362

          k =-0.1498-0.0865 0.3111 ( 35246 PWs)   bands (ev):

   -21.5920 -21.4033 -21.3859 -21.2937 -21.2747 -21.2552 -21.1511 -21.1245
   -21.1001 -20.9957 -20.9730 -20.8523  -9.2406  -9.1476  -9.1180  -9.1159
    -9.0590  -9.0271  -8.6409  -8.6234  -8.5728  -8.5306  -8.5252  -8.4914
    -7.0235  -6.4800  -6.4047  -6.1197  -5.9317  -5.7809  -5.6919  -5.5242
    -5.4694  -5.0066  -4.9449  -4.5734  -3.7004  -3.6509  -3.6148  -3.4896
    -3.4736  -3.4601  -3.4078  -3.3393  -3.2889  -3.2545  -3.2324  -3.1953

          k = 0.2996 0.1730-0.6221 ( 35294 PWs)   bands (ev):

   -21.5032 -21.4534 -21.4058 -21.3353 -21.3086 -21.2823 -21.1290 -21.0935
   -21.0368 -20.9922 -20.9577 -20.9063  -9.1964  -9.1753  -9.1409  -9.1050
    -9.0592  -9.0166  -8.6298  -8.6098  -8.5605  -8.5508  -8.5021  -8.4939
    -6.7796  -6.6545  -6.4557  -6.2874  -5.9521  -5.8613  -5.6328  -5.4854
    -5.2007  -5.0612  -4.8955  -4.7079  -3.7613  -3.6597  -3.5960  -3.5484
    -3.5052  -3.4907  -3.3963  -3.3532  -3.3486  -3.2228  -3.2168  -3.1604

          k =-0.1498 0.0865 0.6221 ( 35318 PWs)   bands (ev):

   -21.5108 -21.4266 -21.4197 -21.3379 -21.3126 -21.2873 -21.1184 -21.0859
   -21.0501 -20.9833 -20.9691 -20.9024  -9.1975  -9.1675  -9.1555  -9.0870
    -9.0702  -9.0155  -8.6274  -8.6126  -8.5746  -8.5272  -8.5094  -8.4959
    -6.8047  -6.5676  -6.5496  -6.1900  -6.0304  -5.9040  -5.5733  -5.4343
    -5.2944  -4.9742  -4.9448  -4.7085  -3.7476  -3.6861  -3.5855  -3.5508
    -3.5117  -3.4494  -3.4320  -3.3609  -3.3283  -3.2275  -3.2212  -3.1565

          k = 0.2996 0.3460-0.3111 ( 35274 PWs)   bands (ev):

   -21.5361 -21.4574 -21.3968 -21.3283 -21.2933 -21.2667 -21.1200 -21.1035
   -21.0565 -20.9914 -20.9608 -20.8904  -9.2144  -9.1860  -9.1306  -9.0983
    -9.0611  -9.0089  -8.6689  -8.6482  -8.5971  -8.5159  -8.4914  -8.4824
    -6.8253  -6.6053  -6.4113  -6.2252  -6.1533  -5.8115  -5.5246  -5.4456
    -5.2624  -5.0630  -4.9210  -4.6833  -3.7031  -3.6508  -3.6041  -3.5528
    -3.4711  -3.4356  -3.3988  -3.3735  -3.3129  -3.2627  -3.2260  -3.1460

          k = 0.1498 0.2595 0.0000 ( 35223 PWs)   bands (ev):

   -21.6042 -21.4250 -21.3938 -21.2804 -21.2509 -21.1984 -21.1876 -21.1299
   -21.1184 -20.9942 -20.9708 -20.8451  -9.2516  -9.1592  -9.1182  -9.1148
    -9.0415  -9.0291  -8.6835  -8.6577  -8.5648  -8.5523  -8.5177  -8.4650
    -7.0310  -6.4508  -6.3646  -6.1466  -6.0414  -5.7492  -5.6291  -5.4847
    -5.4424  -5.0448  -4.9761  -4.5463  -3.6349  -3.6245  -3.6215  -3.5119
    -3.4618  -3.4324  -3.3483  -3.3336  -3.3211  -3.2862  -3.2093  -3.2001

          k = 0.2996-0.1730-1.2442 ( 35214 PWs)   bands (ev):

   -21.5232 -21.5183 -21.4014 -21.3068 -21.2619 -21.2025 -21.1746 -21.1131
   -21.0789 -21.0006 -20.9235 -20.8938  -9.2197  -9.2006  -9.1252  -9.1196
    -9.0278  -9.0100  -8.7130  -8.6742  -8.5716  -8.5478  -8.4820  -8.4761
    -6.7472  -6.7165  -6.3744  -6.2996  -5.9954  -5.8641  -5.5473  -5.3883
    -5.2597  -5.1508  -4.8526  -4.6887  -3.6420  -3.6181  -3.6162  -3.5516
    -3.4665  -3.4087  -3.3877  -3.3587  -3.3170  -3.2866  -3.1872  -3.1772

          k = 0.0000 0.0000 0.9332 ( 35218 PWs)   bands (ev):

   -21.4701 -21.4701 -21.4666 -21.3346 -21.2853 -21.2853 -21.0846 -21.0846
   -21.0671 -20.9599 -20.9599 -20.9331  -9.1930  -9.1930  -9.1619  -9.0578
    -9.0578  -9.0390  -8.6777  -8.6349  -8.6349  -8.4869  -8.4869  -8.4756
    -6.6397  -6.6346  -6.6346  -6.2294  -6.0205  -6.0205  -5.3676  -5.3333
    -5.3333  -4.9569  -4.9569  -4.8179  -3.6659  -3.6659  -3.5920  -3.5588
    -3.4529  -3.4529  -3.4192  -3.3525  -3.3525  -3.2476  -3.2476  -3.1262

          k = 0.4494 0.2595 0.0000 ( 35246 PWs)   bands (ev):

   -21.5466 -21.4609 -21.4488 -21.2868 -21.2568 -21.2247 -21.1501 -21.1281
   -21.0863 -20.9742 -20.9498 -20.8857  -9.2245  -9.1833  -9.1599  -9.0855
    -9.0492  -9.0007  -8.7204  -8.6526  -8.6062  -8.5132  -8.4979  -8.4740
    -6.8240  -6.5570  -6.4926  -6.2567  -6.0230  -5.8364  -5.5059  -5.4677
    -5.2900  -5.0270  -4.9320  -4.6727  -3.6351  -3.6240  -3.6139  -3.5536
    -3.4753  -3.4210  -3.3799  -3.3491  -3.3100  -3.2703  -3.2218  -3.1631

          k = 0.2996 0.1730 0.3111 ( 35259 PWs)   bands (ev):

   -21.5637 -21.4334 -21.3838 -21.3273 -21.2790 -21.2509 -21.1487 -21.1258
   -21.0557 -21.0091 -20.9551 -20.8689  -9.2280  -9.1645  -9.1345  -9.1065
    -9.0674  -8.9947  -8.6797  -8.6107  -8.5687  -8.5534  -8.5060  -8.4919
    -6.9156  -6.5080  -6.3802  -6.2527  -6.0536  -5.8026  -5.6307  -5.4817
    -5.3122  -5.0539  -4.9244  -4.6039  -3.7173  -3.6540  -3.6188  -3.5327
    -3.4935  -3.4417  -3.3938  -3.3479  -3.2833  -3.2600  -3.2045  -3.1908

          k = 0.4494-0.2595-0.9332 ( 35225 PWs)   bands (ev):

   -21.5023 -21.4821 -21.4132 -21.3373 -21.2828 -21.2461 -21.1527 -21.1190
   -21.0261 -20.9967 -20.9533 -20.8896  -9.2020  -9.1896  -9.1529  -9.0990
    -9.0652  -8.9739  -8.7027  -8.6172  -8.5673  -8.5586  -8.4981  -8.4923
    -6.7222  -6.6009  -6.3891  -6.3669  -6.1086  -5.8394  -5.6264  -5.4165
    -5.1223  -5.1043  -4.9505  -4.6431  -3.7263  -3.6620  -3.6342  -3.5440
    -3.5051  -3.4750  -3.3565  -3.3220  -3.3021  -3.2614  -3.2086  -3.1689

          k = 0.2996-0.3460-0.6221 ( 35256 PWs)   bands (ev):

   -21.4921 -21.4324 -21.4117 -21.3657 -21.3068 -21.2932 -21.1224 -21.1031
   -21.0103 -20.9942 -20.9750 -20.8970  -9.2049  -9.1570  -9.1403  -9.1065
    -9.0921  -8.9788  -8.6429  -8.6145  -8.5529  -8.5466  -8.5115  -8.5070
    -6.7146  -6.5723  -6.4438  -6.3705  -6.0340  -5.9893  -5.5199  -5.4523
    -5.1267  -5.0819  -4.9839  -4.6456  -3.7850  -3.6674  -3.6368  -3.5614
    -3.5408  -3.4160  -3.4016  -3.3522  -3.3325  -3.2242  -3.2166  -3.1520

          k = 0.0000 0.0000-1.8663 ( 35172 PWs)   bands (ev):

   -21.4837 -21.4042 -21.4042 -21.3755 -21.3293 -21.3293 -21.0990 -21.0990
   -21.0034 -21.0034 -20.9838 -20.8890  -9.2093  -9.1404  -9.1404  -9.1101
    -9.1101  -8.9551  -8.6543  -8.6198  -8.5394  -8.5394  -8.5253  -8.5253
    -6.6691  -6.5020  -6.3255  -6.3255  -6.2138  -6.2138  -5.3867  -5.3867
    -5.1307  -5.1307  -5.0072  -4.6031  -3.8082  -3.6621  -3.6621  -3.5794
    -3.5794  -3.4248  -3.3642  -3.3038  -3.3038  -3.2444  -3.2444  -3.1376

          k = 0.2996-0.3460 0.3111 ( 35274 PWs)   bands (ev):

   -21.5371 -21.4502 -21.4070 -21.3299 -21.2833 -21.2682 -21.1328 -21.0951
   -21.0501 -21.0034 -20.9520 -20.8921  -9.2189  -9.1719  -9.1386  -9.1105
    -9.0432  -9.0160  -8.6749  -8.6439  -8.5944  -8.5132  -8.4973  -8.4803
    -6.8321  -6.5405  -6.4995  -6.2497  -6.0424  -5.8569  -5.6218  -5.3516
    -5.2421  -5.0699  -4.9510  -4.6743  -3.7049  -3.6448  -3.6128  -3.5423
    -3.4700  -3.4380  -3.3924  -3.3890  -3.3229  -3.2394  -3.2294  -3.1514

     highest occupied level (ev):    -3.1262

!    total energy              =    -413.89652406 Ry
     estimated scf accuracy    <       0.00000010 Ry

     The total energy is the sum of the following terms:
     one-electron contribution =    -327.18813439 Ry
     hartree contribution      =     194.86652117 Ry
     xc contribution           =    -101.48105718 Ry
     ewald contribution        =    -180.09385367 Ry

     convergence has been achieved in  10 iterations

     Forces acting on atoms (cartesian axes, Ry/au):

     atom    1 type  2   force =    -0.00171107   -0.01088210   -0.00893700
     atom    2 type  2   force =     0.00171107    0.01088210    0.00893700
     atom    3 type  2   force =     0.01027971    0.00395922   -0.00893700
     atom    4 type  2   force =    -0.01027971   -0.00395922    0.00893700
     atom    5 type  2   force =    -0.00856864    0.00692288   -0.00893700
     atom    6 type  2   force =     0.00856864   -0.00692288    0.00893700
     atom    7 type  2   force =     0.00984954   -0.01127602    0.00646942
     atom    8 type  2   force =    -0.00984954    0.01127602   -0.00646942
     atom    9 type  2   force =     0.00484055    0.01416796    0.00646942
     atom   10 type  2   force =    -0.00484055   -0.01416796   -0.00646942
     atom   11 type  2   force =    -0.01469009   -0.00289194    0.00646942
     atom   12 type  2   force =     0.01469009    0.00289194   -0.00646942
     atom   13 type  1   force =    -0.01518450    0.01962842   -0.03555290
     atom   14 type  1   force =     0.01518450   -0.01962842    0.03555290
     atom   15 type  1   force =    -0.00940646   -0.02296438   -0.03555290
     atom   16 type  1   force =     0.00940646    0.02296438    0.03555290
     atom   17 type  1   force =     0.02459097    0.00333595   -0.03555290
     atom   18 type  1   force =    -0.02459097   -0.00333595    0.03555290
     atom   19 type  1   force =     0.01679952   -0.01226552    0.03968619
     atom   20 type  1   force =    -0.01679952    0.01226552   -0.03968619
     atom   21 type  1   force =     0.00222250    0.02068157    0.03968619
     atom   22 type  1   force =    -0.00222250   -0.02068157   -0.03968619
     atom   23 type  1   force =    -0.01902201   -0.00841605    0.03968619
     atom   24 type  1   force =     0.01902201    0.00841605   -0.03968619
     atom   25 type  1   force =     0.00836335    0.01100591    0.00011518
     atom   26 type  1   force =    -0.00836335   -0.01100591   -0.00011518
     atom   27 type  1   force =    -0.01371307    0.00173992    0.00011518
     atom   28 type  1   force =     0.01371307   -0.00173992   -0.00011518
     atom   29 type  1   force =     0.00534972   -0.01274582    0.00011518
     atom   30 type  1   force =    -0.00534972    0.01274582   -0.00011518
     atom   31 type  1   force =     0.00169745   -0.00506669   -0.00236245
     atom   32 type  1   force =    -0.00169745    0.00506669    0.00236245
     atom   33 type  1   force =     0.00353916    0.00400338   -0.00236245
     atom   34 type  1   force =    -0.00353916   -0.00400338    0.00236245
     atom   35 type  1   force =    -0.00523661    0.00106331   -0.00236245
     atom   36 type  1   force =     0.00523661   -0.00106331    0.00236245

     Total force =     0.165770     Total SCF correction =     0.000202


     Computing stress (Cartesian axis) and pressure

          total   stress  (Ry/bohr**3)                   (kbar)     P=        1.23
  -0.00005001  -0.00000000  -0.00000000           -7.36       -0.00       -0.00
   0.00000000  -0.00005001  -0.00000000            0.00       -7.36       -0.00
  -0.00000000  -0.00000000   0.00012512           -0.00       -0.00       18.41

     Energy error            =      2.4E-01 Ry
     Gradient error          =      4.0E-02 Ry/Bohr

     number of scf cycles    =   2
     number of bfgs steps    =   1

     energy             old  =    -413.6588722653 Ry
     energy             new  =    -413.8965240634 Ry

     CASE: energy            _new < energy            _old

     new trust radius        =       0.0394403939 bohr
     new conv_thr            =       0.0000001000 Ry


ATOMIC_POSITIONS (crystal)
O                0.2735932470        0.0358465247        0.8595729024
O                0.7264067530        0.9641534863        0.1404270676
O                0.8595729024        0.2735932470        0.0358465247
O                0.1404270676        0.7264067530        0.9641534863
O                0.0358465247        0.8595729024        0.2735932470
O                0.9641534863        0.1404270676        0.7264067530
O                0.4690725021        0.7480766896        0.3295749273
O                0.5309274979        0.2519233104        0.6704250427
O                0.3295749273        0.4690725021        0.7480766896
O                0.6704250427        0.5309274979        0.2519233104
O                0.7480766896        0.3295749273        0.4690725021
O                0.2519233104        0.6704250427        0.5309274979
H                0.1626114689        0.0611991446        0.8061704172
H                0.8373885171        0.9388008474        0.1938295828
H                0.8061704172        0.1626114689        0.0611991446
H                0.1938295828        0.8373885171        0.9388008474
H                0.0611991446        0.8061704172        0.1626114689
H                0.9388008474        0.1938295828        0.8373885171
H                0.4137892380        0.1994956389        0.9945736670
H                0.5862107620        0.8005043761        0.0054263120
H                0.9945736670        0.4137892380        0.1994956389
H                0.0054263120        0.5862107620        0.8005043761
H                0.1994956389        0.9945736670        0.4137892380
H                0.8005043761        0.0054263120        0.5862107620
H                0.7207483440        0.3993491059        0.3988591228
H                0.2792516560        0.6006508641        0.6011409072
H                0.3988591228        0.7207483440        0.3993491059
H                0.6011409072        0.2792516560        0.6006508641
H                0.3993491059        0.3988591228        0.7207483440
H                0.6006508641        0.6011409072        0.2792516560
H                0.7416249235        0.2084924095        0.3665313140
H                0.2583750765        0.7915075755        0.6334686860
H                0.3665313140        0.7416249235        0.2084924095
H                0.6334686860        0.2583750765        0.7915075755
H                0.2084924095        0.3665313140        0.7416249235
H                0.7915075755        0.6334686860        0.2583750765



     Writing config-only to output data dir ./iceII/iceII.save/ :
     XML data file
     NEW-OLD atomic charge density approx. for the potential

     negative rho (up, down):  2.520E-06 0.000E+00

     total cpu time spent up to now is       30.0 secs

     per-process dynamical memory:    34.4 Mb

     Self-consistent Calculation

     iteration #  1     ecut=    90.00 Ry     beta= 0.70
     Davidson diagonalization with overlap
     ethr =  1.00E-06,  avg # of iterations =  4.1

     negative rho (up, down):  2.033E-06 0.000E+00

     total cpu time spent up to now is       31.4 secs

     total energy              =    -413.91080183 Ry
     estimated scf accuracy    <       0.00268718 Ry

     iteration #  2     ecut=    90.00 Ry     beta= 0.70
     Davidson diagonalization with overlap
     ethr =  2.80E-06,  avg # of iterations =  3.0

     negative rho (up, down):  2.173E-06 0.000E+00

     total cpu time spent up to now is       32.4 secs

     total energy              =    -413.91151172 Ry
     estimated scf accuracy    <       0.00111209 Ry

     iteration #  3     ecut=    90.00 Ry     beta= 0.70
     Davidson diagonalization with overlap
     ethr =  1.16E-06,  avg # of iterations =  2.0

     negative rho (up, down):  2.274E-06 0.000E+00

     total cpu time spent up to now is       33.3 secs

     total energy              =    -413.91169142 Ry
     estimated scf accuracy    <       0.00003261 Ry

     iteration #  4     ecut=    90.00 Ry     beta= 0.70
     Davidson diagonalization with overlap
     ethr =  3.40E-08,  avg # of iterations =  4.7

     negative rho (up, down):  2.239E-06 0.000E+00

     total cpu time spent up to now is       34.6 secs

     total energy              =    -413.91171225 Ry
     estimated scf accuracy    <       0.00004369 Ry

     iteration #  5     ecut=    90.00 Ry     beta= 0.70
     Davidson diagonalization with overlap
     ethr =  3.40E-08,  avg # of iterations =  2.0

     negative rho (up, down):  2.206E-06 0.000E+00

     total cpu time spent up to now is       35.5 secs

     total energy              =    -413.91171363 Ry
     estimated scf accuracy    <       0.00000584 Ry

     iteration #  6     ecut=    90.00 Ry     beta= 0.70
     Davidson diagonalization with overlap
     ethr =  6.08E-09,  avg # of iterations =  3.7

     negative rho (up, down):  2.219E-06 0.000E+00

     total cpu time spent up to now is       36.7 secs

     total energy              =    -413.91171640 Ry
     estimated scf accuracy    <       0.00000360 Ry

     iteration #  7     ecut=    90.00 Ry     beta= 0.70
     Davidson diagonalization with overlap
     ethr =  3.75E-09,  avg # of iterations =  2.0

     negative rho (up, down):  2.225E-06 0.000E+00

     total cpu time spent up to now is       37.5 secs

     total energy              =    -413.91171670 Ry
     estimated scf accuracy    <       0.00000036 Ry

     iteration #  8     ecut=    90.00 Ry     beta= 0.70
     Davidson diagonalization with overlap
     ethr =  3.72E-10,  avg # of iterations =  3.6

     negative rho (up, down):  2.227E-06 0.000E+00

     total cpu time spent up to now is       38.5 secs

     End of self-consistent calculation

          k = 0.0000 0.0000 0.0000 ( 35275 PWs)   bands (ev):

   -21.5048 -21.2287 -21.2287 -21.0770 -21.0770 -21.0709 -21.0709 -21.0598
   -21.0447 -20.8626 -20.8626 -20.6896  -9.2093  -9.0783  -9.0434  -9.0434
    -9.0026  -9.0026  -8.5588  -8.5588  -8.4720  -8.4649  -8.4649  -8.3651
    -7.1368  -6.2932  -6.2932  -5.8574  -5.8574  -5.7645  -5.7645  -5.5463
    -5.5376  -4.9755  -4.9755  -4.4398  -3.6259  -3.6259  -3.5786  -3.4244
    -3.4244  -3.3934  -3.3179  -3.2864  -3.2483  -3.2483  -3.2250  -3.2250

          k =-0.1498-0.0865 0.3111 ( 35246 PWs)   bands (ev):

   -21.4589 -21.2514 -21.2240 -21.1696 -21.1515 -21.1107 -21.0219 -20.9926
   -20.9637 -20.8681 -20.8452 -20.7226  -9.1831  -9.0904  -9.0618  -9.0587
    -9.0013  -8.9691  -8.5570  -8.5409  -8.4790  -8.4414  -8.4310  -8.3972
    -6.9979  -6.4204  -6.3319  -6.0909  -5.9483  -5.7315  -5.6216  -5.4838
    -5.3949  -4.9749  -4.9163  -4.5474  -3.6913  -3.6451  -3.5755  -3.4558
    -3.4483  -3.4210  -3.3941  -3.2998  -3.2691  -3.2174  -3.2043  -3.1695

          k = 0.2996 0.1730-0.6221 ( 35294 PWs)   bands (ev):

   -21.3555 -21.3250 -21.2436 -21.2176 -21.1664 -21.1458 -20.9934 -20.9661
   -20.8991 -20.8608 -20.8207 -20.7888  -9.1392  -9.1182  -9.0839  -9.0489
    -9.0032  -8.9583  -8.5410  -8.5204  -8.4719  -8.4622  -8.4077  -8.3998
    -6.7214  -6.6246  -6.3915  -6.2774  -5.9320  -5.8606  -5.5337  -5.4063
    -5.1262  -5.0327  -4.8716  -4.7077  -3.7513  -3.6539  -3.5783  -3.4992
    -3.4748  -3.4628  -3.3729  -3.3496  -3.3040  -3.2009  -3.1698  -3.1324

          k =-0.1498 0.0865 0.6221 ( 35318 PWs)   bands (ev):

   -21.3694 -21.2823 -21.2752 -21.2046 -21.1835 -21.1466 -20.9886 -20.9440
   -20.9186 -20.8518 -20.8384 -20.7801  -9.1404  -9.1104  -9.0986  -9.0321
    -9.0125  -8.9575  -8.5386  -8.5234  -8.4878  -8.4356  -8.4163  -8.4016
    -6.7531  -6.5244  -6.5072  -6.1597  -6.0186  -5.8852  -5.4969  -5.3388
    -5.2341  -4.9439  -4.9175  -4.7081  -3.7399  -3.6746  -3.5699  -3.4982
    -3.4857  -3.4253  -3.4105  -3.3292  -3.3083  -3.2024  -3.1771  -3.1269

          k = 0.2996 0.3460-0.3111 ( 35274 PWs)   bands (ev):

   -21.3993 -21.3024 -21.2566 -21.2052 -21.1627 -21.1232 -20.9979 -20.9510
   -20.8975 -20.8903 -20.8266 -20.7675  -9.1568  -9.1289  -9.0737  -9.0403
    -9.0048  -8.9515  -8.5883  -8.5643  -8.5063  -8.4231  -8.3974  -8.3862
    -6.7923  -6.5487  -6.3529  -6.1954  -6.1513  -5.7698  -5.4271  -5.3784
    -5.2283  -5.0265  -4.8966  -4.6730  -3.6925  -3.6365  -3.5840  -3.5117
    -3.4356  -3.4066  -3.3688  -3.3482  -3.3023  -3.2406  -3.1789  -3.1163

          k = 0.1498 0.2595 0.0000 ( 35223 PWs)   bands (ev):

   -21.4713 -21.2732 -21.2403 -21.1486 -21.1266 -21.0769 -21.0418 -20.9962
   -20.9697 -20.8704 -20.8468 -20.7156  -9.1939  -9.1022  -9.0607  -9.0571
    -8.9836  -8.9715  -8.6058  -8.5760  -8.4755  -8.4587  -8.4255  -8.3674
    -7.0110  -6.3759  -6.2989  -6.1250  -6.0280  -5.6952  -5.5671  -5.4238
    -5.4049  -5.0169  -4.9520  -4.5143  -3.6242  -3.6154  -3.5893  -3.4729
    -3.4220  -3.3931  -3.3286  -3.3216  -3.2856  -3.2586  -3.1814  -3.1704

          k = 0.2996-0.1730-1.2442 ( 35214 PWs)   bands (ev):

   -21.3883 -21.3742 -21.2499 -21.1789 -21.1282 -21.0903 -21.0125 -20.9826
   -20.9186 -20.8872 -20.7940 -20.7726  -9.1619  -9.1430  -9.0672  -9.0626
    -8.9703  -8.9534  -8.6370  -8.5918  -8.4827  -8.4547  -8.3874  -8.3792
    -6.7042  -6.6886  -6.3165  -6.2701  -5.9690  -5.7968  -5.4672  -5.3469
    -5.1797  -5.1586  -4.8163  -4.6756  -3.6236  -3.6027  -3.5991  -3.5131
    -3.4237  -3.3711  -3.3620  -3.3408  -3.2958  -3.2669  -3.1593  -3.1386

          k = 0.0000 0.0000 0.9332 ( 35218 PWs)   bands (ev):

   -21.3304 -21.3304 -21.3073 -21.2322 -21.1438 -21.1438 -20.9515 -20.9515
   -20.8971 -20.8340 -20.8340 -20.8241  -9.1358  -9.1358  -9.1047  -8.9994
    -8.9994  -8.9847  -8.5988  -8.5478  -8.5478  -8.3930  -8.3930  -8.3773
    -6.6016  -6.6016  -6.5520  -6.2609  -5.9735  -5.9735  -5.2677  -5.2677
    -5.2421  -4.9404  -4.9404  -4.8334  -3.6525  -3.6525  -3.5743  -3.5295
    -3.4130  -3.4130  -3.3857  -3.3380  -3.3380  -3.2124  -3.2124  -3.0973

          k = 0.4494 0.2595 0.0000 ( 35246 PWs)   bands (ev):

   -21.4098 -21.3110 -21.3069 -21.1770 -21.1045 -21.0867 -21.0172 -21.0009
   -20.9232 -20.8524 -20.8266 -20.7611  -9.1667  -9.1257  -9.1024  -9.0279
    -8.9914  -8.9443  -8.6445  -8.5691  -8.5186  -8.4173  -8.4052  -8.3776
    -6.7938  -6.4968  -6.4520  -6.2513  -5.9630  -5.7639  -5.4627  -5.4306
    -5.2063  -5.0067  -4.9090  -4.6539  -3.6151  -3.6099  -3.5975  -3.5134
    -3.4371  -3.3922  -3.3460  -3.3298  -3.2834  -3.2495  -3.1980  -3.1244

          k = 0.2996 0.1730 0.3111 ( 35259 PWs)   bands (ev):

   -21.4282 -21.2802 -21.2284 -21.2099 -21.1433 -21.1193 -21.0035 -20.9918
   -20.9307 -20.8744 -20.8288 -20.7417  -9.1705  -9.1070  -9.0774  -9.0496
    -9.0106  -8.9370  -8.5994  -8.5259  -8.4749  -8.4629  -8.4128  -8.3976
    -6.8863  -6.4459  -6.3451  -6.1841  -6.0578  -5.7621  -5.5486  -5.4205
    -5.2933  -5.0010  -4.8980  -4.5842  -3.7102  -3.6354  -3.5928  -3.4983
    -3.4530  -3.4118  -3.3717  -3.3231  -3.2731  -3.2345  -3.1780  -3.1412

          k = 0.4494-0.2595-0.9332 ( 35225 PWs)   bands (ev):

   -21.3532 -21.3450 -21.2657 -21.2237 -21.1425 -21.1017 -21.0231 -20.9776
   -20.8837 -20.8700 -20.8275 -20.7662  -9.1449  -9.1317  -9.0951  -9.0423
    -9.0088  -8.9167  -8.6241  -8.5310  -8.4761  -8.4664  -8.4042  -8.3980
    -6.6758  -6.5674  -6.3698  -6.3109  -6.0662  -5.7683  -5.5846  -5.3719
    -5.0959  -5.0300  -4.9225  -4.6327  -3.7196  -3.6370  -3.6128  -3.5044
    -3.4696  -3.4414  -3.3364  -3.3034  -3.2912  -3.2439  -3.1793  -3.1130

          k = 0.2996-0.3460-0.6221 ( 35256 PWs)   bands (ev):

   -21.3372 -21.3029 -21.2583 -21.2481 -21.1674 -21.1574 -20.9817 -20.9675
   -20.8839 -20.8716 -20.8310 -20.7758  -9.1477  -9.0997  -9.0829  -9.0503
    -9.0359  -8.9214  -8.5558  -8.5268  -8.4626  -8.4565  -8.4178  -8.4135
    -6.6476  -6.5553  -6.3881  -6.3437  -5.9984  -5.9686  -5.4382  -5.3817
    -5.0993  -5.0594  -4.9177  -4.6464  -3.7777  -3.6506  -3.6160  -3.5228
    -3.4997  -3.4048  -3.3681  -3.3310  -3.3175  -3.2024  -3.1856  -3.1015

          k = 0.0000 0.0000-1.8663 ( 35172 PWs)   bands (ev):

   -21.3181 -21.2764 -21.2561 -21.2561 -21.1979 -21.1979 -20.9433 -20.9433
   -20.8996 -20.8996 -20.8302 -20.7643  -9.1521  -9.0825  -9.0825  -9.0539
    -9.0539  -8.8983  -8.5686  -8.5337  -8.4468  -8.4468  -8.4336  -8.4336
    -6.5946  -6.5161  -6.2387  -6.2387  -6.2093  -6.2093  -5.3003  -5.3003
    -5.1462  -5.1462  -4.8985  -4.6041  -3.7999  -3.6417  -3.6417  -3.5416
    -3.5416  -3.3719  -3.3709  -3.2959  -3.2959  -3.2130  -3.2130  -3.0788

          k = 0.2996-0.3460 0.3111 ( 35274 PWs)   bands (ev):

   -21.3985 -21.3092 -21.2411 -21.2150 -21.1624 -21.1245 -20.9923 -20.9502
   -20.9210 -20.8653 -20.8335 -20.7672  -9.1616  -9.1144  -9.0813  -9.0532
    -8.9877  -8.9576  -8.5946  -8.5596  -8.5037  -8.4207  -8.4030  -8.3842
    -6.7969  -6.5033  -6.4304  -6.2106  -6.0568  -5.8082  -5.5304  -5.2822
    -5.1732  -5.0583  -4.9284  -4.6617  -3.6962  -3.6205  -3.6001  -3.5017
    -3.4357  -3.4083  -3.3725  -3.3458  -3.3187  -3.2229  -3.1785  -3.1211

     highest occupied level (ev):    -3.0788

!    total energy              =    -413.91171680 Ry
     estimated scf accuracy    <          6.3E-09 Ry

     The total energy is the sum of the following terms:
     one-electron contribution =    -324.76051073 Ry
     hartree contribution      =     193.74965613 Ry
     xc contribution           =    -101.25906771 Ry
     ewald contribution        =    -181.64179449 Ry

     convergence has been achieved in   8 iterations

     Forces acting on atoms (cartesian axes, Ry/au):

     atom    1 type  2   force =    -0.00822237    0.01132801    0.01222861
     atom    2 type  2   force =     0.00822237   -0.01132801   -0.01222861
     atom    3 type  2   force =    -0.00569916   -0.01278478    0.01222861
     atom    4 type  2   force =     0.00569916    0.01278478   -0.01222861
     atom    5 type  2   force =     0.01392153    0.00145677    0.01222861
     atom    6 type  2   force =    -0.01392153   -0.00145677   -0.01222861
     atom    7 type  2   force =     0.00049367   -0.00698806    0.00195025
     atom    8 type  2   force =    -0.00049367    0.00698806   -0.00195025
     atom    9 type  2   force =     0.00580500    0.00392156    0.00195025
     atom   10 type  2   force =    -0.00580500   -0.00392156   -0.00195025
     atom   11 type  2   force =    -0.00629867    0.00306650    0.00195025
     atom   12 type  2   force =     0.00629867   -0.00306650   -0.00195025
     atom   13 type  1   force =    -0.00523486   -0.00138906   -0.02074289
     atom   14 type  1   force =     0.00523486    0.00138906    0.02074289
     atom   15 type  1   force =     0.00382039   -0.00383899   -0.02074289
     atom   16 type  1   force =    -0.00382039    0.00383899    0.02074289
     atom   17 type  1   force =     0.00141447    0.00522805   -0.02074289
     atom   18 type  1   force =    -0.00141447   -0.00522805    0.02074289
     atom   19 type  1   force =     0.01274395   -0.01310288    0.00424542
     atom   20 type  1   force =    -0.01274395    0.01310288   -0.00424542
     atom   21 type  1   force =     0.00497545    0.01758803    0.00424542
     atom   22 type  1   force =    -0.00497545   -0.01758803   -0.00424542
     atom   23 type  1   force =    -0.01771940   -0.00448514    0.00424542
     atom   24 type  1   force =     0.01771940    0.00448514   -0.00424542
     atom   25 type  1   force =     0.00428139    0.00171710    0.00158178
     atom   26 type  1   force =    -0.00428139   -0.00171710   -0.00158178
     atom   27 type  1   force =    -0.00362774    0.00284924    0.00158178
     atom   28 type  1   force =     0.00362774   -0.00284924   -0.00158178
     atom   29 type  1   force =    -0.00065364   -0.00456634    0.00158178
     atom   30 type  1   force =     0.00065364    0.00456634   -0.00158178
     atom   31 type  1   force =    -0.00285655   -0.00231232    0.00121447
     atom   32 type  1   force =     0.00285655    0.00231232   -0.00121447
     atom   33 type  1   force =     0.00343081   -0.00131769    0.00121447
     atom   34 type  1   force =    -0.00343081    0.00131769   -0.00121447
     atom   35 type  1   force =    -0.00057425    0.00363001    0.00121447
     atom   36 type  1   force =     0.00057425   -0.00363001   -0.00121447

     Total force =     0.086562     Total SCF correction =     0.000075


     Computing stress (Cartesian axis) and pressure

          total   stress  (Ry/bohr**3)                   (kbar)     P=      -17.55
  -0.00014592   0.00000000  -0.00000000          -21.47        0.00       -0.00
  -0.00000000  -0.00014592  -0.00000000           -0.00      -21.47       -0.00
  -0.00000000  -0.00000000  -0.00006608           -0.00       -0.00       -9.72

     Energy error            =      1.5E-02 Ry
     Gradient error          =      2.1E-02 Ry/Bohr

     number of scf cycles    =   3
     number of bfgs steps    =   2

     energy             old  =    -413.8965240634 Ry
     energy             new  =    -413.9117167997 Ry

     CASE: energy            _new < energy            _old

     new trust radius        =       0.0554015211 bohr
     new conv_thr            =       0.0000001000 Ry


ATOMIC_POSITIONS (crystal)
O                0.2739578184        0.0380675313        0.8612218534
O                0.7260421816        0.9619324797        0.1387781166
O                0.8612218534        0.2739578184        0.0380675313
O                0.1387781166        0.7260421816        0.9619324797
O                0.0380675313        0.8612218534        0.2739578184
O                0.9619324797        0.1387781166        0.7260421816
O                0.4697099412        0.7477512465        0.3300942541
O                0.5302900588        0.2522487535        0.6699057159
O                0.3300942541        0.4697099412        0.7477512465
O                0.6699057159        0.5302900588        0.2522487535
O                0.7477512465        0.3300942541        0.4697099412
O                0.2522487535        0.6699057159        0.5302900588
H                0.1576915932        0.0571594148        0.8023998707
H                0.8423083928        0.9428405772        0.1976001293
H                0.8023998707        0.1576915932        0.0571594148
H                0.1976001293        0.8423083928        0.9428405772
H                0.0571594148        0.8023998707        0.1576915932
H                0.9428405772        0.1976001293        0.8423083928
H                0.4176787782        0.2002263415        0.9961331139
H                0.5823212218        0.7997736735        0.0038668651
H                0.9961331139        0.4176787782        0.2002263415
H                0.0038668651        0.5823212218        0.7997736735
H                0.2002263415        0.9961331139        0.4176787782
H                0.7997736735        0.0038668651        0.5823212218
H                0.7212670296        0.3998317481        0.3986509831
H                0.2787329704        0.6001682219        0.6013490469
H                0.3986509831        0.7212670296        0.3998317481
H                0.6013490469        0.2787329704        0.6001682219
H                0.3998317481        0.3986509831        0.7212670296
H                0.6001682219        0.6013490469        0.2787329704
H                0.7417098663        0.2085518496        0.3671871602
H                0.2582901337        0.7914481354        0.6328128398
H                0.3671871602        0.7417098663        0.2085518496
H                0.6328128398        0.2582901337        0.7914481354
H                0.2085518496        0.3671871602        0.7417098663
H                0.7914481354        0.6328128398        0.2582901337



     Writing config-only to output data dir ./iceII/iceII.save/ :
     XML data file
     NEW-OLD atomic charge density approx. for the potential

     negative rho (up, down):  2.235E-06 0.000E+00

     total cpu time spent up to now is       39.9 secs

     per-process dynamical memory:    34.4 Mb

     Self-consistent Calculation

     iteration #  1     ecut=    90.00 Ry     beta= 0.70
     Davidson diagonalization with overlap
     ethr =  1.00E-06,  avg # of iterations =  7.0

     negative rho (up, down):  1.315E-06 0.000E+00

     total cpu time spent up to now is       41.6 secs

     total energy              =    -413.92188704 Ry
     estimated scf accuracy    <       0.00126209 Ry

     iteration #  2     ecut=    90.00 Ry     beta= 0.70
     Davidson diagonalization with overlap
     ethr =  1.31E-06,  avg # of iterations =  2.5

     negative rho (up, down):  1.287E-06 0.000E+00

     total cpu time spent up to now is       42.5 secs

     total energy              =    -413.92212667 Ry
     estimated scf accuracy    <       0.00019312 Ry

     iteration #  3     ecut=    90.00 Ry     beta= 0.70
     Davidson diagonalization with overlap
     ethr =  2.01E-07,  avg # of iterations =  2.5

     negative rho (up, down):  1.294E-06 0.000E+00

     total cpu time spent up to now is       43.5 secs

     total energy              =    -413.92216918 Ry
     estimated scf accuracy    <       0.00001748 Ry

     iteration #  4     ecut=    90.00 Ry     beta= 0.70
     Davidson diagonalization with overlap
     ethr =  1.82E-08,  avg # of iterations =  2.0

     negative rho (up, down):  1.289E-06 0.000E+00

     total cpu time spent up to now is       44.3 secs

     total energy              =    -413.92217136 Ry
     estimated scf accuracy    <       0.00000121 Ry

     iteration #  5     ecut=    90.00 Ry     beta= 0.70
     Davidson diagonalization with overlap
     ethr =  1.26E-09,  avg # of iterations =  3.2

     negative rho (up, down):  1.289E-06 0.000E+00

     total cpu time spent up to now is       45.3 secs

     total energy              =    -413.92217168 Ry
     estimated scf accuracy    <       0.00000012 Ry

     iteration #  6     ecut=    90.00 Ry     beta= 0.70
     Davidson diagonalization with overlap
     ethr =  1.30E-10,  avg # of iterations =  2.0

     negative rho (up, down):  1.288E-06 0.000E+00

     total cpu time spent up to now is       46.2 secs

     End of self-consistent calculation

          k = 0.0000 0.0000 0.0000 ( 35275 PWs)   bands (ev):

   -21.4550 -21.1915 -21.1915 -21.0267 -21.0267 -20.9874 -20.9861 -20.9861
   -20.9857 -20.7705 -20.7705 -20.6072  -9.1614  -9.0449  -9.0016  -9.0016
    -8.9994  -8.9994  -8.6731  -8.6731  -8.6285  -8.6222  -8.6222  -8.5293
    -7.0533  -6.1782  -6.1782  -5.8287  -5.8287  -5.6535  -5.6535  -5.4866
    -5.4121  -4.9051  -4.9051  -4.3752  -3.6195  -3.6195  -3.5659  -3.4146
    -3.4146  -3.3808  -3.3030  -3.2705  -3.2219  -3.2219  -3.2145  -3.2145

          k =-0.1498-0.0865 0.3111 ( 35246 PWs)   bands (ev):

   -21.4112 -21.2120 -21.1945 -21.1005 -21.0673 -21.0496 -20.9568 -20.9280
   -20.9018 -20.7752 -20.7543 -20.6368  -9.1365  -9.0592  -9.0312  -9.0223
    -8.9848  -8.9463  -8.6895  -8.6708  -8.6366  -8.5904  -8.5789  -8.5543
    -6.9139  -6.3249  -6.2190  -6.0234  -5.9202  -5.6664  -5.4742  -5.4264
    -5.2618  -4.9077  -4.8502  -4.4921  -3.6797  -3.6365  -3.5636  -3.4465
    -3.4403  -3.4011  -3.3861  -3.2817  -3.2559  -3.2077  -3.1764  -3.1544

          k = 0.2996 0.1730-0.6221 ( 35294 PWs)   bands (ev):

   -21.3264 -21.2654 -21.2108 -21.1414 -21.1005 -21.0714 -20.9381 -20.8976
   -20.8417 -20.7721 -20.7402 -20.6851  -9.0947  -9.0802  -9.0468  -9.0247
    -8.9810  -8.9305  -8.6824  -8.6710  -8.6235  -8.6080  -8.5546  -8.5454
    -6.6019  -6.5706  -6.2642  -6.2467  -5.8573  -5.8379  -5.3573  -5.3103
    -5.0027  -4.9613  -4.8078  -4.6922  -3.7355  -3.6445  -3.5681  -3.4831
    -3.4574  -3.4546  -3.3601  -3.3509  -3.2815  -3.1927  -3.1415  -3.1183

          k =-0.1498 0.0865 0.6221 ( 35318 PWs)   bands (ev):

   -21.3329 -21.2399 -21.2273 -21.1390 -21.1058 -21.0794 -20.9254 -20.8907
   -20.8520 -20.7667 -20.7507 -20.6809  -9.0958  -9.0716  -9.0635  -9.0113
    -8.9847  -8.9306  -8.6805  -8.6735  -8.6390  -8.5798  -8.5632  -8.5494
    -6.6576  -6.4419  -6.4191  -6.0894  -5.9691  -5.8277  -5.3712  -5.1854
    -5.1339  -4.8916  -4.8340  -4.6914  -3.7247  -3.6622  -3.5622  -3.4790
    -3.4733  -3.4175  -3.4009  -3.3199  -3.2935  -3.1878  -3.1553  -3.1096

          k = 0.2996 0.3460-0.3111 ( 35274 PWs)   bands (ev):

   -21.3543 -21.2613 -21.2220 -21.1301 -21.0802 -21.0625 -20.9389 -20.8924
   -20.8493 -20.7857 -20.7373 -20.6736  -9.1124  -9.0886  -9.0348  -9.0097
    -8.9850  -8.9272  -8.7299  -8.7114  -8.6609  -8.5690  -8.5475  -8.5351
    -6.7065  -6.4332  -6.2837  -6.1352  -6.0785  -5.6938  -5.3170  -5.2131
    -5.1898  -4.9409  -4.8373  -4.6315  -3.6806  -3.6269  -3.5746  -3.4995
    -3.4217  -3.3891  -3.3614  -3.3347  -3.2950  -3.2271  -3.1519  -3.0992

          k = 0.1498 0.2595 0.0000 ( 35223 PWs)   bands (ev):

   -21.4222 -21.2341 -21.2021 -21.0838 -21.0553 -20.9986 -20.9875 -20.9276
   -20.9116 -20.7778 -20.7532 -20.6310  -9.1466  -9.0661  -9.0294  -9.0202
    -8.9640  -8.9561  -8.7411  -8.7092  -8.6335  -8.6042  -8.5719  -8.5272
    -6.9265  -6.2478  -6.2168  -6.0532  -5.9750  -5.6018  -5.4711  -5.3424
    -5.3106  -4.9447  -4.8885  -4.4510  -3.6186  -3.6084  -3.5776  -3.4618
    -3.4095  -3.3756  -3.3221  -3.3053  -3.2696  -3.2434  -3.1622  -3.1486

          k = 0.2996-0.1730-1.2442 ( 35214 PWs)   bands (ev):

   -21.3374 -21.3326 -21.2115 -21.1118 -21.0629 -21.0063 -20.9696 -20.9098
   -20.8648 -20.7889 -20.7128 -20.6760  -9.1173  -9.0990  -9.0368  -9.0233
    -8.9439  -8.9325  -8.7834  -8.7393  -8.6419  -8.5954  -8.5404  -8.5287
    -6.6060  -6.6052  -6.2205  -6.2068  -5.8942  -5.6938  -5.3471  -5.2788
    -5.1239  -5.0592  -4.7482  -4.6226  -3.6176  -3.5920  -3.5913  -3.5026
    -3.4066  -3.3518  -3.3478  -3.3358  -3.2849  -3.2527  -3.1393  -3.1151

          k = 0.0000 0.0000 0.9332 ( 35218 PWs)   bands (ev):

   -21.2876 -21.2818 -21.2818 -21.1282 -21.0857 -21.0857 -20.8817 -20.8817
   -20.8694 -20.7464 -20.7464 -20.7110  -9.0942  -9.0942  -9.0603  -8.9721
    -8.9721  -8.9690  -8.7468  -8.6973  -8.6973  -8.5390  -8.5390  -8.5262
    -6.5161  -6.5161  -6.3870  -6.2820  -5.8953  -5.8953  -5.1578  -5.1578
    -5.0416  -4.8949  -4.8949  -4.8367  -3.6413  -3.6413  -3.5683  -3.5205
    -3.3928  -3.3928  -3.3697  -3.3360  -3.3360  -3.1888  -3.1888  -3.0815

          k = 0.4494 0.2595 0.0000 ( 35246 PWs)   bands (ev):

   -21.3621 -21.2722 -21.2603 -21.0939 -21.0578 -21.0265 -20.9444 -20.9212
   -20.8778 -20.7638 -20.7354 -20.6695  -9.1210  -9.0847  -9.0621  -8.9968
    -8.9673  -8.9212  -8.7909  -8.7152  -8.6735  -8.5677  -8.5497  -8.5314
    -6.7057  -6.3846  -6.3656  -6.2111  -5.8651  -5.6561  -5.3861  -5.3567
    -5.0841  -4.9442  -4.8505  -4.5970  -3.6109  -3.6001  -3.5870  -3.5025
    -3.4212  -3.3781  -3.3315  -3.3224  -3.2689  -3.2342  -3.1800  -3.1004

          k = 0.2996 0.1730 0.3111 ( 35259 PWs)   bands (ev):

   -21.3816 -21.2413 -21.1992 -21.1337 -21.0714 -21.0421 -20.9552 -20.9256
   -20.8551 -20.7937 -20.7376 -20.6513  -9.1242  -9.0712  -9.0441  -9.0105
    -8.9905  -8.9136  -8.7382  -8.6644  -8.6286  -8.6190  -8.5585  -8.5521
    -6.8018  -6.3479  -6.2799  -6.0604  -6.0145  -5.6909  -5.4029  -5.3342
    -5.2447  -4.9007  -4.8360  -4.5331  -3.6982  -3.6244  -3.5813  -3.4845
    -3.4406  -3.3996  -3.3624  -3.3075  -3.2663  -3.2205  -3.1656  -3.1117

          k = 0.4494-0.2595-0.9332 ( 35225 PWs)   bands (ev):

   -21.3153 -21.2972 -21.2275 -21.1444 -21.0775 -21.0367 -20.9571 -20.9115
   -20.8239 -20.7873 -20.7433 -20.6656  -9.1000  -9.0899  -9.0584  -9.0074
    -8.9804  -8.8889  -8.7688  -8.6839  -8.6348  -8.6145  -8.5553  -8.5462
    -6.5879  -6.4848  -6.3072  -6.2260  -5.9600  -5.6596  -5.4960  -5.3069
    -5.0401  -4.9024  -4.8572  -4.5886  -3.7071  -3.6234  -3.6003  -3.4903
    -3.4545  -3.4315  -3.3274  -3.2972  -3.2815  -3.2325  -3.1643  -3.0823

          k = 0.2996-0.3460-0.6221 ( 35256 PWs)   bands (ev):

   -21.3108 -21.2479 -21.2230 -21.1737 -21.0963 -21.0794 -20.9284 -20.9053
   -20.8112 -20.7812 -20.7640 -20.6694  -9.1028  -9.0597  -9.0439  -9.0230
    -9.0084  -8.8931  -8.6945  -8.6838  -8.6160  -8.6052  -8.5669  -8.5615
    -6.5341  -6.5099  -6.2967  -6.2713  -5.9171  -5.8888  -5.3118  -5.2769
    -5.0346  -5.0137  -4.7750  -4.6401  -3.7590  -3.6382  -3.6034  -3.5073
    -3.4834  -3.4030  -3.3568  -3.3239  -3.3033  -3.1923  -3.1714  -3.0734

          k = 0.0000 0.0000-1.8663 ( 35172 PWs)   bands (ev):

   -21.2938 -21.2294 -21.2294 -21.1826 -21.1128 -21.1128 -20.8963 -20.8963
   -20.7948 -20.7948 -20.7903 -20.6571  -9.1056  -9.0425  -9.0425  -9.0224
    -9.0224  -8.8664  -8.7064  -8.6959  -8.6026  -8.6026  -8.5823  -8.5823
    -6.5239  -6.4460  -6.1905  -6.1905  -6.0701  -6.0701  -5.1548  -5.1548
    -5.1476  -5.1476  -4.7334  -4.5999  -3.7769  -3.6280  -3.6280  -3.5262
    -3.5262  -3.3778  -3.3501  -3.2917  -3.2917  -3.1992  -3.1992  -3.0478

          k = 0.2996-0.3460 0.3111 ( 35274 PWs)   bands (ev):

   -21.3529 -21.2711 -21.2093 -21.1292 -21.0904 -21.0611 -20.9187 -20.9096
   -20.8536 -20.7749 -20.7439 -20.6730  -9.1158  -9.0778  -9.0417  -9.0209
    -8.9682  -8.9331  -8.7385  -8.7050  -8.6578  -8.5661  -8.5518  -8.5346
    -6.7057  -6.4386  -6.2994  -6.1167  -6.0502  -5.7276  -5.3806  -5.1679
    -5.1123  -4.9702  -4.8727  -4.6188  -3.6845  -3.6094  -3.5911  -3.4911
    -3.4207  -3.3927  -3.3638  -3.3274  -3.3142  -3.2121  -3.1509  -3.1034

     highest occupied level (ev):    -3.0478

!    total energy              =    -413.92217170 Ry
     estimated scf accuracy    <       0.00000001 Ry

     The total energy is the sum of the following terms:
     one-electron contribution =    -323.51381815 Ry
     hartree contribution      =     193.17130880 Ry
     xc contribution           =    -101.18845143 Ry
     ewald contribution        =    -182.39121093 Ry

     convergence has been achieved in   6 iterations

     Forces acting on atoms (cartesian axes, Ry/au):

     atom    1 type  2   force =    -0.00662270    0.00699469    0.00255231
     atom    2 type  2   force =     0.00662270   -0.00699469   -0.00255231
     atom    3 type  2   force =    -0.00274623   -0.00923277    0.00255231
     atom    4 type  2   force =     0.00274623    0.00923277   -0.00255231
     atom    5 type  2   force =     0.00936893    0.00223808    0.00255231
     atom    6 type  2   force =    -0.00936893   -0.00223808   -0.00255231
     atom    7 type  2   force =    -0.00249985    0.00050945   -0.00368658
     atom    8 type  2   force =     0.00249985   -0.00050945    0.00368658
     atom    9 type  2   force =     0.00080872   -0.00241966   -0.00368658
     atom   10 type  2   force =    -0.00080872    0.00241966    0.00368658
     atom   11 type  2   force =     0.00169112    0.00191021   -0.00368658
     atom   12 type  2   force =    -0.00169112   -0.00191021    0.00368658
     atom   13 type  1   force =    -0.00115595   -0.00797667   -0.00343566
     atom   14 type  1   force =     0.00115595    0.00797667    0.00343566
     atom   15 type  1   force =     0.00748597    0.00298725   -0.00343566
     atom   16 type  1   force =    -0.00748597   -0.00298725    0.00343566
     atom   17 type  1   force =    -0.00633002    0.00498942   -0.00343566
     atom   18 type  1   force =     0.00633002   -0.00498942    0.00343566
     atom   19 type  1   force =     0.00641467   -0.00166586   -0.00286681
     atom   20 type  1   force =    -0.00641467    0.00166586    0.00286681
     atom   21 type  1   force =    -0.00176466    0.00638820   -0.00286681
     atom   22 type  1   force =     0.00176466   -0.00638820    0.00286681
     atom   23 type  1   force =    -0.00465001   -0.00472234   -0.00286681
     atom   24 type  1   force =     0.00465001    0.00472234    0.00286681
     atom   25 type  1   force =     0.00141549   -0.00210772    0.00274345
     atom   26 type  1   force =    -0.00141549    0.00210772   -0.00274345
     atom   27 type  1   force =     0.00111760    0.00227971    0.00274345
     atom   28 type  1   force =    -0.00111760   -0.00227971   -0.00274345
     atom   29 type  1   force =    -0.00253308   -0.00017198    0.00274345
     atom   30 type  1   force =     0.00253308    0.00017198   -0.00274345
     atom   31 type  1   force =    -0.00773841    0.00154468    0.00504744
     atom   32 type  1   force =     0.00773841   -0.00154468   -0.00504744
     atom   33 type  1   force =     0.00253147   -0.00747400    0.00504744
     atom   34 type  1   force =    -0.00253147    0.00747400   -0.00504744
     atom   35 type  1   force =     0.00520694    0.00592932    0.00504744
     atom   36 type  1   force =    -0.00520694   -0.00592932   -0.00504744

     Total force =     0.045828     Total SCF correction =     0.000120


     Computing stress (Cartesian axis) and pressure

          total   stress  (Ry/bohr**3)                   (kbar)     P=      -24.62
  -0.00018918   0.00000000  -0.00000000          -27.83        0.00       -0.00
  -0.00000000  -0.00018918  -0.00000000           -0.00      -27.83       -0.00
  -0.00000000  -0.00000000  -0.00012379           -0.00       -0.00      -18.21

     Energy error            =      1.0E-02 Ry
     Gradient error          =      9.4E-03 Ry/Bohr

     number of scf cycles    =   4
     number of bfgs steps    =   3

     energy             old  =    -413.9117167997 Ry
     energy             new  =    -413.9221717024 Ry

     CASE: energy            _new < energy            _old

     new trust radius        =       0.0230995814 bohr
     new conv_thr            =       0.0000000937 Ry


ATOMIC_POSITIONS (crystal)
O                0.2735998354        0.0388834664        0.8618008810
O                0.7264001646        0.9611165446        0.1381990890
O                0.8618008810        0.2735998354        0.0388834664
O                0.1381990890        0.7264001646        0.9611165446
O                0.0388834664        0.8618008810        0.2735998354
O                0.9611165446        0.1381990890        0.7264001646
O                0.4694224256        0.7473290916        0.3299466641
O                0.5305775744        0.2526709084        0.6700533059
O                0.3299466641        0.4694224256        0.7473290916
O                0.6700533059        0.5305775744        0.2526709084
O                0.7473290916        0.3299466641        0.4694224256
O                0.2526709084        0.6700533059        0.5305775744
H                0.1558583853        0.0552057578        0.8011072422
H                0.8441416007        0.9447942342        0.1988927578
H                0.8011072422        0.1558583853        0.0552057578
H                0.1988927578        0.8441416007        0.9447942342
H                0.0552057578        0.8011072422        0.1558583853
H                0.9447942342        0.1988927578        0.8441416007
H                0.4193072717        0.2005196836        0.9964413919
H                0.5806927283        0.7994803314        0.0035585871
H                0.9964413919        0.4193072717        0.2005196836
H                0.0035585871        0.5806927283        0.7994803314
H                0.2005196836        0.9964413919        0.4193072717
H                0.7994803314        0.0035585871        0.5806927283
H                0.7218006387        0.4001604035        0.3988169568
H                0.2781993613        0.5998395665        0.6011830732
H                0.3988169568        0.7218006387        0.4001604035
H                0.6011830732        0.2781993613        0.5998395665
H                0.4001604035        0.3988169568        0.7218006387
H                0.5998395665        0.6011830732        0.2781993613
H                0.7418204454        0.2091549007        0.3682060249
H                0.2581795546        0.7908450843        0.6317939751
H                0.3682060249        0.7418204454        0.2091549007
H                0.6317939751        0.2581795546        0.7908450843
H                0.2091549007        0.3682060249        0.7418204454
H                0.7908450843        0.6317939751        0.2581795546



     Writing config-only to output data dir ./iceII/iceII.save/ :
     XML data file
     NEW-OLD atomic charge density approx. for the potential

     negative rho (up, down):  1.399E-06 0.000E+00

     total cpu time spent up to now is       47.6 secs

     per-process dynamical memory:    34.4 Mb

     Self-consistent Calculation

     iteration #  1     ecut=    90.00 Ry     beta= 0.70
     Davidson diagonalization with overlap
     ethr =  1.00E-06,  avg # of iterations =  4.0

     negative rho (up, down):  1.120E-06 0.000E+00

     total cpu time spent up to now is       48.9 secs

     total energy              =    -413.92384118 Ry
     estimated scf accuracy    <       0.00042034 Ry

     iteration #  2     ecut=    90.00 Ry     beta= 0.70
     Davidson diagonalization with overlap
     ethr =  4.38E-07,  avg # of iterations =  3.0

     negative rho (up, down):  1.062E-06 0.000E+00

     total cpu time spent up to now is       49.9 secs

     total energy              =    -413.92393631 Ry
     estimated scf accuracy    <       0.00010931 Ry

     iteration #  3     ecut=    90.00 Ry     beta= 0.70
     Davidson diagonalization with overlap
     ethr =  1.14E-07,  avg # of iterations =  2.4

     negative rho (up, down):  1.029E-06 0.000E+00

     total cpu time spent up to now is       50.8 secs

     total energy              =    -413.92396042 Ry
[...]
H                0.4117364687        0.4162601685        0.7258311381
H                0.5882635013        0.5837398615        0.2741688619
H                0.7469027561        0.2236465210        0.3924418467
H                0.2530972439        0.7763534640        0.6075581533
H                0.3924418467        0.7469027561        0.2236465210
H                0.6075581533        0.2530972439        0.7763534640
H                0.2236465210        0.3924418467        0.7469027561
H                0.7763534640        0.6075581533        0.2530972439



     Writing config-only to output data dir ./iceII/iceII.save/ :
     XML data file
     NEW-OLD atomic charge density approx. for the potential

     negative rho (up, down):  3.595E-07 0.000E+00

     total cpu time spent up to now is      398.1 secs

     per-process dynamical memory:    34.7 Mb

     Self-consistent Calculation

     iteration #  1     ecut=    90.00 Ry     beta= 0.70
     Davidson diagonalization with overlap
     ethr =  1.00E-06,  avg # of iterations =  4.0

     negative rho (up, down):  3.745E-07 0.000E+00

     total cpu time spent up to now is      399.4 secs

     total energy              =    -413.93506215 Ry
     estimated scf accuracy    <       0.00015164 Ry

     iteration #  2     ecut=    90.00 Ry     beta= 0.70
     Davidson diagonalization with overlap
     ethr =  1.58E-07,  avg # of iterations =  2.0

     negative rho (up, down):  3.917E-07 0.000E+00

     total cpu time spent up to now is      400.2 secs

     total energy              =    -413.93508208 Ry
     estimated scf accuracy    <       0.00000943 Ry

     iteration #  3     ecut=    90.00 Ry     beta= 0.70
     Davidson diagonalization with overlap
     ethr =  9.82E-09,  avg # of iterations =  3.2

     negative rho (up, down):  3.921E-07 0.000E+00

     total cpu time spent up to now is      401.2 secs

     total energy              =    -413.93508464 Ry
     estimated scf accuracy    <       0.00000074 Ry

     iteration #  4     ecut=    90.00 Ry     beta= 0.70
     Davidson diagonalization with overlap
     ethr =  7.68E-10,  avg # of iterations =  3.1

     negative rho (up, down):  3.931E-07 0.000E+00

     total cpu time spent up to now is      402.2 secs

     total energy              =    -413.93508488 Ry
     estimated scf accuracy    <       0.00000013 Ry

     iteration #  5     ecut=    90.00 Ry     beta= 0.70
     Davidson diagonalization with overlap
     ethr =  1.39E-10,  avg # of iterations =  2.9

     negative rho (up, down):  3.932E-07 0.000E+00

     total cpu time spent up to now is      403.2 secs

     total energy              =    -413.93508491 Ry
     estimated scf accuracy    <       0.00000002 Ry

     iteration #  6     ecut=    90.00 Ry     beta= 0.70
     Davidson diagonalization with overlap
     ethr =  2.02E-11,  avg # of iterations =  2.9

     negative rho (up, down):  3.931E-07 0.000E+00

     total cpu time spent up to now is      404.2 secs

     total energy              =    -413.93508491 Ry
     estimated scf accuracy    <          1.4E-09 Ry

     iteration #  7     ecut=    90.00 Ry     beta= 0.70
     Davidson diagonalization with overlap
     ethr =  1.45E-12,  avg # of iterations =  3.1

     negative rho (up, down):  3.930E-07 0.000E+00

     total cpu time spent up to now is      405.1 secs

     End of self-consistent calculation

          k = 0.0000 0.0000 0.0000 ( 35275 PWs)   bands (ev):

   -21.5363 -21.3143 -21.3143 -21.0864 -21.0864 -21.0216 -20.9972 -20.9404
   -20.9404 -20.6809 -20.6809 -20.5108  -9.1915  -9.1038  -9.0494  -9.0494
    -9.0029  -9.0029  -8.6868  -8.6868  -8.5989  -8.5989  -8.5942  -8.5506
    -7.0457  -6.2340  -6.2340  -5.8516  -5.8516  -5.7097  -5.5514  -5.5514
    -5.2732  -4.8474  -4.8474  -4.2799  -3.6673  -3.6673  -3.5163  -3.4849
    -3.4398  -3.4398  -3.2873  -3.2417  -3.2384  -3.2384  -3.1789  -3.1789

          k =-0.1498-0.0865 0.3111 ( 35246 PWs)   bands (ev):

   -21.5037 -21.3250 -21.3176 -21.1231 -21.0993 -21.0803 -20.9434 -20.9349
   -20.8975 -20.6856 -20.6713 -20.5308  -9.1736  -9.0987  -9.0754  -9.0625
    -9.0140  -8.9851  -8.6758  -8.6656  -8.6047  -8.5752  -8.5677  -8.5552
    -6.9130  -6.3448  -6.2404  -6.0467  -5.9794  -5.7935  -5.4094  -5.3441
    -5.1346  -4.8789  -4.8127  -4.3994  -3.7120  -3.6802  -3.5576  -3.5152
    -3.4786  -3.4467  -3.3286  -3.2927  -3.2402  -3.2285  -3.1506  -3.1299

          k = 0.2996 0.1730-0.6221 ( 35294 PWs)   bands (ev):

   -21.4571 -21.3478 -21.3217 -21.1502 -21.1190 -21.1106 -20.9287 -20.9123
   -20.8613 -20.6888 -20.6630 -20.5551  -9.1430  -9.1068  -9.0961  -9.0662
    -9.0310  -8.9770  -8.6518  -8.6381  -8.6159  -8.5901  -8.5416  -8.5319
    -6.6146  -6.5699  -6.3208  -6.1835  -6.0032  -5.9171  -5.2742  -5.1654
    -4.9898  -4.9132  -4.7094  -4.6660  -3.7556  -3.6906  -3.5958  -3.5421
    -3.5115  -3.4534  -3.3452  -3.3392  -3.2421  -3.2274  -3.1267  -3.0998

          k =-0.1498 0.0865 0.6221 ( 35318 PWs)   bands (ev):

   -21.4586 -21.3382 -21.3281 -21.1511 -21.1249 -21.1084 -20.9266 -20.9050
   -20.8674 -20.6837 -20.6697 -20.5539  -9.1434  -9.1044  -9.0951  -9.0748
    -9.0219  -8.9802  -8.6506  -8.6400  -8.6248  -8.5722  -8.5501  -8.5320
    -6.6691  -6.4455  -6.4017  -6.1337  -6.0670  -5.8993  -5.2888  -5.1031
    -5.0346  -4.8793  -4.7714  -4.6354  -3.7520  -3.6861  -3.6181  -3.5318
    -3.4856  -3.4744  -3.3467  -3.3255  -3.2788  -3.1784  -3.1632  -3.0869

          k = 0.2996 0.3460-0.3111 ( 35274 PWs)   bands (ev):

   -21.4628 -21.3642 -21.3299 -21.1445 -21.1026 -21.0812 -20.9527 -20.9005
   -20.8797 -20.6836 -20.6607 -20.5500  -9.1461  -9.1173  -9.0862  -9.0409
    -9.0352  -8.9788  -8.6978  -8.6772  -8.6285  -8.5663  -8.5541  -8.5345
    -6.7258  -6.4338  -6.3538  -6.2024  -6.0203  -5.7222  -5.3391  -5.2123
    -5.0334  -4.9029  -4.7894  -4.5418  -3.7158  -3.6527  -3.5981  -3.5133
    -3.4871  -3.4400  -3.3488  -3.3151  -3.2847  -3.2193  -3.1369  -3.0826

          k = 0.1498 0.2595 0.0000 ( 35223 PWs)   bands (ev):

   -21.5085 -21.3468 -21.3206 -21.1160 -21.0847 -21.0325 -20.9810 -20.9300
   -20.9140 -20.6826 -20.6660 -20.5271  -9.1746  -9.1067  -9.0666  -9.0524
    -8.9977  -8.9953  -8.7158  -8.6947  -8.6044  -8.5998  -8.5720  -8.5468
    -6.9326  -6.3281  -6.2711  -6.0697  -5.9057  -5.5535  -5.5450  -5.3999
    -5.1807  -4.8817  -4.8227  -4.3574  -3.6697  -3.6520  -3.5449  -3.4800
    -3.4623  -3.4367  -3.3169  -3.2866  -3.2674  -3.2443  -3.1472  -3.1152

          k = 0.2996-0.1730-1.2442 ( 35214 PWs)   bands (ev):

   -21.4572 -21.4030 -21.3265 -21.1384 -21.0861 -21.0291 -20.9824 -20.9188
   -20.8878 -20.6845 -20.6480 -20.5474  -9.1403  -9.1315  -9.0732  -9.0543
    -8.9991  -8.9892  -8.7358  -8.7029  -8.6119  -8.6008  -8.5542  -8.5444
    -6.6928  -6.5812  -6.2841  -6.2190  -5.8437  -5.6354  -5.4008  -5.3500
    -5.0183  -4.9763  -4.7144  -4.5077  -3.6702  -3.6264  -3.5810  -3.5060
    -3.4481  -3.4383  -3.3476  -3.3006  -3.2916  -3.2447  -3.1272  -3.0795

          k = 0.0000 0.0000 0.9332 ( 35218 PWs)   bands (ev):

   -21.4396 -21.3619 -21.3619 -21.1233 -21.1233 -21.1011 -20.9246 -20.8898
   -20.8898 -20.6657 -20.6657 -20.5658  -9.1217  -9.1217  -9.1160  -9.0407
    -9.0061  -9.0061  -8.7072  -8.6603  -8.6603  -8.5474  -8.5474  -8.5241
    -6.4979  -6.4979  -6.4771  -6.3481  -5.8943  -5.8943  -5.1743  -5.1743
    -4.8886  -4.8618  -4.8618  -4.7214  -3.6655  -3.6655  -3.6359  -3.5275
    -3.4472  -3.4472  -3.3398  -3.3398  -3.3116  -3.1571  -3.1571  -3.0962

          k = 0.4494 0.2595 0.0000 ( 35246 PWs)   bands (ev):

   -21.4639 -21.3771 -21.3502 -21.1167 -21.0920 -21.0607 -20.9471 -20.9208
   -20.9023 -20.6751 -20.6572 -20.5464  -9.1469  -9.1142  -9.0960  -9.0348
    -9.0041  -8.9924  -8.7418  -8.6852  -8.6423  -8.5703  -8.5620  -8.5477
    -6.7401  -6.4515  -6.3852  -6.2115  -5.8268  -5.6149  -5.4534  -5.3538
    -5.0107  -4.8907  -4.7925  -4.4928  -3.6691  -3.6261  -3.5795  -3.5015
    -3.4640  -3.4390  -3.3415  -3.3291  -3.2583  -3.2209  -3.1636  -3.0686

          k = 0.2996 0.1730 0.3111 ( 35259 PWs)   bands (ev):

   -21.4810 -21.3477 -21.3229 -21.1391 -21.1031 -21.0732 -20.9507 -20.9274
   -20.8748 -20.6953 -20.6609 -20.5363  -9.1585  -9.0980  -9.0827  -9.0612
    -9.0253  -8.9714  -8.7039  -8.6534  -8.6057  -8.5958  -8.5585  -8.5523
    -6.8207  -6.4079  -6.2686  -6.1550  -5.9334  -5.7634  -5.3713  -5.3196
    -5.1315  -4.8635  -4.7820  -4.4466  -3.7367  -3.6470  -3.5742  -3.5240
    -3.4819  -3.4682  -3.3309  -3.3065  -3.2585  -3.2231  -3.1852  -3.0602

          k = 0.4494-0.2595-0.9332 ( 35225 PWs)   bands (ev):

   -21.4458 -21.3765 -21.3362 -21.1413 -21.1098 -21.0823 -20.9432 -20.9124
   -20.8690 -20.6878 -20.6678 -20.5404  -9.1272  -9.1198  -9.0871  -9.0541
    -9.0318  -8.9656  -8.7190  -8.6558  -8.6071  -8.6049  -8.5587  -8.5486
    -6.6831  -6.4694  -6.3168  -6.2738  -5.9013  -5.6892  -5.4464  -5.3118
    -4.9841  -4.8389  -4.8126  -4.5045  -3.7455  -3.6187  -3.6024  -3.5224
    -3.5014  -3.4864  -3.3359  -3.3138  -3.2548  -3.2417  -3.1792  -3.0265

          k = 0.2996-0.3460-0.6221 ( 35256 PWs)   bands (ev):

   -21.4460 -21.3448 -21.3326 -21.1668 -21.1198 -21.1005 -20.9350 -20.9128
   -20.8454 -20.6904 -20.6774 -20.5439  -9.1335  -9.0975  -9.0876  -9.0665
    -9.0538  -8.9641  -8.6626  -8.6410  -8.6088  -8.5936  -8.5515  -8.5448
    -6.6276  -6.4839  -6.3194  -6.2632  -5.9560  -5.9052  -5.2904  -5.2159
    -4.9886  -4.9400  -4.6619  -4.6342  -3.7838  -3.6523  -3.6122  -3.5494
    -3.5192  -3.4896  -3.3319  -3.3304  -3.2482  -3.2231  -3.1905  -3.0281

          k = 0.0000 0.0000-1.8663 ( 35172 PWs)   bands (ev):

   -21.4335 -21.3431 -21.3431 -21.1608 -21.1227 -21.1227 -20.9145 -20.9145
   -20.8431 -20.6916 -20.6916 -20.5341  -9.1205  -9.0839  -9.0839  -9.0695
    -9.0695  -8.9588  -8.6721  -8.6431  -8.5983  -8.5983  -8.5614  -8.5614
    -6.6530  -6.4189  -6.2510  -6.2510  -5.9894  -5.9894  -5.2272  -5.2272
    -5.0081  -5.0081  -4.6403  -4.5824  -3.7926  -3.6209  -3.6209  -3.5659
    -3.5659  -3.5024  -3.3155  -3.3155  -3.2499  -3.2223  -3.2223  -2.9939

          k = 0.2996-0.3460 0.3111 ( 35274 PWs)   bands (ev):

   -21.4621 -21.3692 -21.3251 -21.1362 -21.1180 -21.0762 -20.9413 -20.9174
   -20.8727 -20.6794 -20.6652 -20.5497  -9.1489  -9.1097  -9.0865  -9.0538
    -9.0283  -8.9774  -8.6987  -8.6781  -8.6261  -8.5672  -8.5531  -8.5354
    -6.7239  -6.4764  -6.2831  -6.2210  -6.0172  -5.7481  -5.3620  -5.1520
    -5.0532  -4.8752  -4.8297  -4.5355  -3.7182  -3.6469  -3.6004  -3.5174
    -3.4767  -3.4513  -3.3414  -3.3071  -3.2965  -3.2200  -3.1361  -3.0825

     highest occupied level (ev):    -2.9939

!    total energy              =    -413.93508491 Ry
     estimated scf accuracy    <          5.4E-10 Ry

     The total energy is the sum of the following terms:
     one-electron contribution =    -319.23184539 Ry
     hartree contribution      =     191.06743041 Ry
     xc contribution           =    -101.26848227 Ry
     ewald contribution        =    -184.50218766 Ry

     convergence has been achieved in   7 iterations

     Forces acting on atoms (cartesian axes, Ry/au):

     atom    1 type  2   force =     0.00010382   -0.00025265   -0.00013696
     atom    2 type  2   force =    -0.00010382    0.00025265    0.00013696
     atom    3 type  2   force =     0.00016689    0.00021623   -0.00013696
     atom    4 type  2   force =    -0.00016689   -0.00021623    0.00013696
     atom    5 type  2   force =    -0.00027071    0.00003642   -0.00013696
     atom    6 type  2   force =     0.00027071   -0.00003642    0.00013696
     atom    7 type  2   force =    -0.00008282    0.00032502   -0.00042097
     atom    8 type  2   force =     0.00008282   -0.00032502    0.00042097
     atom    9 type  2   force =    -0.00024006   -0.00023423   -0.00042097
     atom   10 type  2   force =     0.00024006    0.00023423    0.00042097
     atom   11 type  2   force =     0.00032288   -0.00009079   -0.00042097
     atom   12 type  2   force =    -0.00032288    0.00009079    0.00042097
     atom   13 type  1   force =    -0.00008430    0.00002932   -0.00000980
     atom   14 type  1   force =     0.00008430   -0.00002932    0.00000980
     atom   15 type  1   force =     0.00001676   -0.00008767   -0.00000980
     atom   16 type  1   force =    -0.00001676    0.00008767    0.00000980
     atom   17 type  1   force =     0.00006754    0.00005835   -0.00000980
     atom   18 type  1   force =    -0.00006754   -0.00005835    0.00000980
     atom   19 type  1   force =     0.00014684    0.00002568    0.00006910
     atom   20 type  1   force =    -0.00014684   -0.00002568   -0.00006910
     atom   21 type  1   force =    -0.00009566    0.00011433    0.00006910
     atom   22 type  1   force =     0.00009566   -0.00011433   -0.00006910
     atom   23 type  1   force =    -0.00005118   -0.00014001    0.00006910
     atom   24 type  1   force =     0.00005118    0.00014001   -0.00006910
     atom   25 type  1   force =    -0.00043219    0.00051657    0.00010748
     atom   26 type  1   force =     0.00043219   -0.00051657   -0.00010748
     atom   27 type  1   force =    -0.00023127   -0.00063257    0.00010748
     atom   28 type  1   force =     0.00023127    0.00063257   -0.00010748
     atom   29 type  1   force =     0.00066345    0.00011600    0.00010748
     atom   30 type  1   force =    -0.00066345   -0.00011600   -0.00010748
     atom   31 type  1   force =     0.00006400   -0.00051421    0.00008863
     atom   32 type  1   force =    -0.00006400    0.00051421   -0.00008863
     atom   33 type  1   force =     0.00041332    0.00031253    0.00008863
     atom   34 type  1   force =    -0.00041332   -0.00031253   -0.00008863
     atom   35 type  1   force =    -0.00047732    0.00020168    0.00008863
     atom   36 type  1   force =     0.00047732   -0.00020168   -0.00008863

     Total force =     0.002638     Total SCF correction =     0.000097


     Computing stress (Cartesian axis) and pressure

          total   stress  (Ry/bohr**3)                   (kbar)     P=      -18.87
  -0.00014786   0.00000000   0.00000000          -21.75        0.00        0.00
  -0.00000000  -0.00014786  -0.00000000           -0.00      -21.75       -0.00
  -0.00000000  -0.00000000  -0.00008902           -0.00       -0.00      -13.10

     Energy error            =      2.0E-05 Ry
     Gradient error          =      6.6E-04 Ry/Bohr

     number of scf cycles    =  50
     number of bfgs steps    =  49

     energy             old  =    -413.9350648431 Ry
     energy             new  =    -413.9350849141 Ry

     CASE: energy            _new < energy            _old

     new trust radius        =       0.0047170952 bohr

     The maximum number of steps has been reached.

     End of BFGS Geometry Optimization

ATOMIC_POSITIONS (crystal)
O                0.2619811778        0.0186862475        0.8594562891
O                0.7380188222        0.9813137635        0.1405436809
O                0.8594562891        0.2619811778        0.0186862475
O                0.1405436809        0.7380188222        0.9813137635
O                0.0186862475        0.8594562891        0.2619811778
O                0.9813137635        0.1405436809        0.7380188222
O                0.4902796047        0.7494418292        0.3433924787
O                0.5097203953        0.2505581708        0.6566074913
O                0.3433924787        0.4902796047        0.7494418292
O                0.6566074913        0.5097203953        0.2505581708
O                0.7494418292        0.3433924787        0.4902796047
O                0.2505581708        0.6566074913        0.5097203953
H                0.1461992705        0.0388024984        0.8024438744
H                0.8538007155        0.9611974936        0.1975561256
H                0.8024438744        0.1461992705        0.0388024984
H                0.1975561256        0.8538007155        0.9611974936
H                0.0388024984        0.8024438744        0.1461992705
H                0.9611974936        0.1975561256        0.8538007155
H                0.4088893547        0.1798633369        0.9862961847
H                0.5911106453        0.8201366781        0.0137037943
H                0.9862961847        0.4088893547        0.1798633369
H                0.0137037943        0.5911106453        0.8201366781
H                0.1798633369        0.9862961847        0.4088893547
H                0.8201366781        0.0137037943        0.5911106453
H                0.7257970284        0.4118109381        0.4163864604
H                0.2742029716        0.5881890319        0.5836135696
H                0.4163864604        0.7257970284        0.4118109381
H                0.5836135696        0.2742029716        0.5881890319
H                0.4118109381        0.4163864604        0.7257970284
H                0.5881890319        0.5836135696        0.2742029716
H                0.7465346765        0.2233649419        0.3922788082
H                0.2534653235        0.7766350431        0.6077211918
H                0.3922788082        0.7465346765        0.2233649419
H                0.6077211918        0.2534653235        0.7766350431
H                0.2233649419        0.3922788082        0.7465346765
H                0.7766350431        0.6077211918        0.2534653235



     Writing config-only to output data dir ./iceII/iceII.save/ :
     XML data file
     NEW-OLD atomic charge density approx. for the potential

     negative rho (up, down):  3.658E-07 0.000E+00

     Writing all to output data dir ./iceII/iceII.save/ :
     XML data file, charge density, pseudopotentials, collected wavefunctions

     init_run     :      1.28s CPU      1.35s WALL (       1 calls)
     electrons    :    333.46s CPU    339.21s WALL (      50 calls)
     update_pot   :      1.51s CPU      1.59s WALL (      50 calls)
     forces       :      7.81s CPU      7.86s WALL (      50 calls)
     stress       :     52.19s CPU     52.27s WALL (      50 calls)

     Called by init_run:
     wfcinit      :      0.38s CPU      0.39s WALL (       1 calls)
     potinit      :      0.04s CPU      0.05s WALL (       1 calls)
     hinit0       :      0.67s CPU      0.69s WALL (       1 calls)

     Called by electrons:
     c_bands      :    282.06s CPU    284.60s WALL (     338 calls)
     sum_band     :     40.11s CPU     40.40s WALL (     338 calls)
     v_of_rho     :      8.63s CPU      8.82s WALL (     363 calls)
     newd         :      1.43s CPU      1.46s WALL (     363 calls)
     mix_rho      :      1.15s CPU      1.16s WALL (     338 calls)

     Called by c_bands:
     init_us_2    :      5.62s CPU      5.86s WALL (    3108 calls)
     cegterg      :    271.92s CPU    273.56s WALL (    1352 calls)

     Called by *egterg:
     cdiaghg      :     18.97s CPU     19.02s WALL (    4879 calls)
     h_psi        :    202.93s CPU    204.40s WALL (    5183 calls)
     s_psi        :      9.72s CPU      9.76s WALL (    5183 calls)
     g_psi        :      0.63s CPU      0.63s WALL (    3827 calls)

     Called by h_psi:
     h_psi:calbec :     15.22s CPU     15.30s WALL (    5183 calls)
     vloc_psi     :    176.31s CPU    177.66s WALL (    5183 calls)
     add_vuspsi   :      9.73s CPU      9.77s WALL (    5183 calls)

     General routines
     calbec       :     22.48s CPU     22.61s WALL (    7535 calls)
     fft          :      5.90s CPU      6.07s WALL (    4469 calls)
     ffts         :      0.44s CPU      0.44s WALL (     338 calls)
     fftw         :    183.86s CPU    185.19s WALL (  465476 calls)
     davcio       :      0.00s CPU      0.00s WALL (       4 calls)

     Parallel routines

     PWSCF        :   6m40.13s CPU   6m47.23s WALL


   This run was terminated on:  20:57:57  31Mar2026            

=------------------------------------------------------------------------------=
   JOB DONE.
=------------------------------------------------------------------------------=
