
     Program PWSCF v.7.3.1 starts on 23Mar2026 at 17:49: 4 

     This program is part of the open-source Quantum ESPRESSO suite
     for quantum simulation of materials; please cite
         "P. Giannozzi et al., J. Phys.:Condens. Matter 21 395502 (2009);
         "P. Giannozzi et al., J. Phys.:Condens. Matter 29 465901 (2017);
         "P. Giannozzi et al., J. Chem. Phys. 152 154105 (2020);
          URL http://www.quantum-espresso.org", 
     in publications or presentations arising from this work. More details at
     http://www.quantum-espresso.org/quote

     Parallel version (MPI), running on   128 processors

     MPI processes distributed on     1 nodes
     242879 MiB available memory on the printing compute node when the environment starts

     Waiting for input...
     Reading input from standard input

     Current dimensions of program PWSCF are:
     Max number of different atomic species (ntypx) = 10
     Max number of k-points (npk) =  40000
     Max angular momentum in pseudopotentials (lmaxx) =  4

     K-points division:     npool     =       4
     R & G space division:  proc/nbgrp/npool/nimage =      32
     Subspace diagonalization in iterative solution of the eigenvalue problem:
     a serial algorithm will be used


     Parallelization info
     --------------------
     sticks:   dense  smooth     PW     G-vecs:    dense   smooth      PW
     Min         155     155     45                 5994     5994     968
     Max         156     156     46                 5995     5995     972
     Sum        4965    4965   1465               191813   191813   31057

     Using Slab Decomposition



     bravais-lattice index     =            5
     lattice parameter (alat)  =      13.7023  a.u.
     unit-cell volume          =    1662.1700 (a.u.)^3
     number of atoms/cell      =           36
     number of atomic types    =            2
     number of electrons       =        96.00
     number of Kohn-Sham states=           48
     kinetic-energy cutoff     =      90.0000  Ry
     charge density cutoff     =     360.0000  Ry
     scf convergence threshold =      1.0E-07
     mixing beta               =       0.7000
     number of iterations used =            8  plain     mixing
     Exchange-correlation=  SLA  PW   PBE  PBE
                           (   1   4   3   4   0   0   0)

     celldm(1)=  13.702328  celldm(2)=   0.000000  celldm(3)=   0.000000
     celldm(4)=  -0.392337  celldm(5)=   0.000000  celldm(6)=   0.000000

     crystal axes: (cart. coord. in units of alat)
               a(1) = (   0.834367  -0.481722   0.267909 )  
               a(2) = (   0.000000   0.963444   0.267909 )  
               a(3) = (  -0.834367  -0.481722   0.267909 )  

     reciprocal axes: (cart. coord. in units 2 pi/alat)
               b(1) = (  0.599257 -0.345981  1.244203 )  
               b(2) = (  0.000000  0.691962  1.244203 )  
               b(3) = ( -0.599257 -0.345981  1.244203 )  


     PseudoPot. # 1 for H  read from file:
     ./H.pbe-van_ak.UPF
     MD5 check sum: 077eb6d537518a38cb46c6de387227b7
     Pseudo is Ultrasoft, Zval =  1.0
     Generated by new atomic code, or converted to UPF format
     Using radial grid of  615 points,  1 beta functions with: 
                l(1) =   0
     Q(r) pseudized with  8 coefficients,  rinner =    0.800

     PseudoPot. # 2 for O  read from file:
     ./O.pbe-van_ak.UPF
     MD5 check sum: 78c19812648e8988a0fe644b0f25305e
     Pseudo is Ultrasoft, Zval =  6.0
     Generated by new atomic code, or converted to UPF format
     Using radial grid of  737 points,  4 beta functions with: 
                l(1) =   0
                l(2) =   0
                l(3) =   1
                l(4) =   1
     Q(r) pseudized with  8 coefficients,  rinner =    0.800   0.800   0.800


     atomic species   valence    mass     pseudopotential
     H                 1.00     1.00800     H ( 1.00)
     O                 6.00    16.00000     O ( 1.00)

      6 Sym. Ops., with inversion, found



   Cartesian axes

     site n.     atom                  positions (alat units)
         1        O      tau(   1) = (  -0.4910119  -0.5205722   0.3052394  )
         2        O      tau(   2) = (   0.4910119   0.5205722   0.4984877  )
         3        O      tau(   3) = (   0.6963347  -0.1649427   0.3052394  )
         4        O      tau(   4) = (  -0.6963347   0.1649427   0.4984877  )
         5        O      tau(   5) = (  -0.2053228   0.6855149   0.3052394  )
         6        O      tau(   6) = (   0.2053228  -0.6855149   0.4984877  )
         7        O      tau(   7) = (   0.1229870   0.3303028   0.4196306  )
         8        O      tau(   8) = (  -0.1229870  -0.3303028   0.3840965  )
         9        O      tau(   9) = (  -0.3475441  -0.0586415   0.4196306  )
        10        O      tau(  10) = (   0.3475441   0.0586415   0.3840965  )
        11        O      tau(  11) = (   0.2245571  -0.2716613   0.4196306  )
        12        O      tau(  12) = (  -0.2245571   0.2716612   0.3840965  )
        13        H      tau(  13) = (  -0.5446961  -0.4126715   0.2597134  )
        14        H      tau(  14) = (   0.5446961   0.4126715   0.5440137  )
        15        H      tau(  15) = (   0.6297321  -0.2653849   0.2597134  )
        16        H      tau(  16) = (  -0.6297321   0.2653849   0.5440137  )
        17        H      tau(  17) = (  -0.0850360   0.6780564   0.2597134  )
        18        H      tau(  18) = (   0.0850360  -0.6780564   0.5440137  )
        19        H      tau(  19) = (  -0.4726389  -0.4926041   0.4288765  )
        20        H      tau(  20) = (   0.4726389   0.4926042   0.3748506  )
        21        H      tau(  21) = (   0.6629272  -0.1630152   0.4288765  )
        22        H      tau(  22) = (  -0.6629272   0.1630152   0.3748506  )
        23        H      tau(  23) = (  -0.1902883   0.6556194   0.4288765  )
        24        H      tau(  24) = (   0.1902883  -0.6556194   0.3748506  )
        25        H      tau(  25) = (   0.2676988  -0.1507235   0.4151121  )
        26        H      tau(  26) = (  -0.2676988   0.1507234   0.3886151  )
        27        H      tau(  27) = (  -0.0033191   0.3071957   0.4151121  )
        28        H      tau(  28) = (   0.0033191  -0.3071957   0.3886151  )
        29        H      tau(  29) = (  -0.2643797  -0.1564722   0.4151121  )
        30        H      tau(  30) = (   0.2643797   0.1564723   0.3886151  )
        31        H      tau(  31) = (   0.3102941  -0.3416444   0.3555952  )
        32        H      tau(  32) = (  -0.3102941   0.3416444   0.4481319  )
        33        H      tau(  33) = (   0.1407257   0.4395448   0.3555952  )
        34        H      tau(  34) = (  -0.1407257  -0.4395448   0.4481319  )
        35        H      tau(  35) = (  -0.4510198  -0.0979003   0.3555952  )
        36        H      tau(  36) = (   0.4510198   0.0979003   0.4481319  )

     number of k points=    14
                       cart. coord. in units 2pi/alat
        k(    1) = (   0.0000000   0.0000000   0.0000000), wk =   0.0312500
        k(    2) = (  -0.1498141  -0.0864952   0.3110508), wk =   0.1875000
        k(    3) = (   0.2996283   0.1729905  -0.6221017), wk =   0.0937500
        k(    4) = (  -0.1498141   0.0864952   0.6221017), wk =   0.1875000
        k(    5) = (   0.2996283   0.3459809  -0.3110508), wk =   0.1875000
        k(    6) = (   0.1498141   0.2594857   0.0000000), wk =   0.1875000
        k(    7) = (   0.2996283  -0.1729905  -1.2442034), wk =   0.0937500
        k(    8) = (   0.0000000   0.0000000   0.9331525), wk =   0.0625000
        k(    9) = (   0.4494424   0.2594857   0.0000000), wk =   0.1875000
        k(   10) = (   0.2996283   0.1729905   0.3110508), wk =   0.1875000
        k(   11) = (   0.4494424  -0.2594857  -0.9331525), wk =   0.1875000
        k(   12) = (   0.2996283  -0.3459809  -0.6221017), wk =   0.1875000
        k(   13) = (   0.0000000   0.0000000  -1.8663050), wk =   0.0312500
        k(   14) = (   0.2996283  -0.3459809   0.3110508), wk =   0.1875000

     Dense  grid:   191813 G-vectors     FFT dimensions: (  90,  90,  90)

     Estimated max dynamical RAM per process >      13.12 MB

     Estimated total dynamical RAM >       1.50 GB

     Initial potential from superposition of free atoms

     starting charge      95.9998, renormalised to      96.0000
     Starting wfcs are   72 randomized atomic wfcs

     total cpu time spent up to now is        1.1 secs

     per-process dynamical memory:    17.9 Mb

     Self-consistent Calculation

     iteration #  1     ecut=    90.00 Ry     beta= 0.70
     Davidson diagonalization with overlap
     ethr =  1.00E-02,  avg # of iterations =  2.0

     total cpu time spent up to now is        1.9 secs

     total energy              =    -412.02550428 Ry
     estimated scf accuracy    <       4.35324470 Ry

     iteration #  2     ecut=    90.00 Ry     beta= 0.70
     Davidson diagonalization with overlap
     ethr =  4.53E-03,  avg # of iterations =  3.0

     total cpu time spent up to now is        2.8 secs

     total energy              =    -413.44384162 Ry
     estimated scf accuracy    <       1.76009620 Ry

     iteration #  3     ecut=    90.00 Ry     beta= 0.70
     Davidson diagonalization with overlap
     ethr =  1.83E-03,  avg # of iterations =  2.0

     total cpu time spent up to now is        3.5 secs

     total energy              =    -413.64635391 Ry
     estimated scf accuracy    <       0.07239107 Ry

     iteration #  4     ecut=    90.00 Ry     beta= 0.70
     Davidson diagonalization with overlap
     ethr =  7.54E-05,  avg # of iterations =  4.0

     total cpu time spent up to now is        4.5 secs

     total energy              =    -413.69313251 Ry
     estimated scf accuracy    <       0.08887445 Ry

     iteration #  5     ecut=    90.00 Ry     beta= 0.70
     Davidson diagonalization with overlap
     ethr =  7.54E-05,  avg # of iterations =  2.0

     total cpu time spent up to now is        5.2 secs

     total energy              =    -413.69755499 Ry
     estimated scf accuracy    <       0.01029566 Ry

     iteration #  6     ecut=    90.00 Ry     beta= 0.70
     Davidson diagonalization with overlap
     ethr =  1.07E-05,  avg # of iterations =  3.0

     total cpu time spent up to now is        6.1 secs

     total energy              =    -413.70110294 Ry
     estimated scf accuracy    <       0.00000940 Ry

     iteration #  7     ecut=    90.00 Ry     beta= 0.70
     Davidson diagonalization with overlap
     ethr =  9.79E-09,  avg # of iterations =  6.8

     total cpu time spent up to now is        7.6 secs

     total energy              =    -413.70120815 Ry
     estimated scf accuracy    <       0.00014753 Ry

     iteration #  8     ecut=    90.00 Ry     beta= 0.70
     Davidson diagonalization with overlap
     ethr =  9.79E-09,  avg # of iterations =  4.0

     total cpu time spent up to now is        8.6 secs

     total energy              =    -413.70121229 Ry
     estimated scf accuracy    <       0.00002029 Ry

     iteration #  9     ecut=    90.00 Ry     beta= 0.70
     Davidson diagonalization with overlap
     ethr =  9.79E-09,  avg # of iterations =  2.0

     total cpu time spent up to now is        9.4 secs

     total energy              =    -413.70121375 Ry
     estimated scf accuracy    <       0.00000204 Ry

     iteration # 10     ecut=    90.00 Ry     beta= 0.70
     Davidson diagonalization with overlap
     ethr =  2.12E-09,  avg # of iterations =  3.0

     total cpu time spent up to now is       10.2 secs

     End of self-consistent calculation

          k = 0.0000 0.0000 0.0000 ( 23969 PWs)   bands (ev):

   -20.8042 -20.1157 -20.1157 -19.8215 -19.8215 -19.7886 -19.7423 -19.7423
   -19.7044 -19.2899 -19.2899 -18.8208  -8.0940  -7.9488  -7.9488  -7.9387
    -7.7898  -7.7898  -7.4324  -7.4159  -7.4159  -7.4144  -7.4144  -7.3511
    -6.2418  -4.8544  -4.8544  -4.1541  -4.1541  -3.8655  -3.8655  -3.7545
    -3.5482  -2.7511  -2.7511  -1.9631  -1.8171  -1.8171  -1.6911  -1.5607
    -1.5607  -1.4945  -1.4098  -1.4098  -1.3832  -1.2035  -1.1980  -1.1980

          k =-0.1498-0.0865 0.3111 ( 23974 PWs)   bands (ev):

   -20.6985 -20.1650 -20.0941 -20.0299 -19.9753 -19.8715 -19.6797 -19.6010
   -19.5060 -19.3052 -19.2418 -18.9061  -8.0454  -7.9855  -7.9444  -7.9109
    -7.7867  -7.7410  -7.5322  -7.4775  -7.4322  -7.3591  -7.3041  -7.2592
    -5.9957  -5.0533  -4.8764  -4.5073  -4.2726  -3.9693  -3.6700  -3.5485
    -3.3501  -2.7558  -2.6726  -2.1107  -1.9309  -1.8579  -1.7223  -1.6695
    -1.6295  -1.5458  -1.4229  -1.3851  -1.3251  -1.2838  -1.2107  -1.1930

          k = 0.2996 0.1730-0.6221 ( 23952 PWs)   bands (ev):

   -20.4316 -20.4081 -20.1296 -20.1123 -19.9925 -19.9642 -19.6058 -19.5614
   -19.3630 -19.2859 -19.1475 -19.0894  -8.0065  -7.9836  -7.9328  -7.9018
    -7.7986  -7.7186  -7.5448  -7.4998  -7.4406  -7.3728  -7.2033  -7.1802
    -5.5464  -5.3673  -4.8973  -4.8603  -4.2633  -4.1949  -3.5004  -3.4274
    -2.9069  -2.8901  -2.6564  -2.3705  -2.0054  -1.8966  -1.7576  -1.7563
    -1.6656  -1.5188  -1.5017  -1.4182  -1.3835  -1.2828  -1.1790  -1.1750

          k =-0.1498 0.0865 0.6221 ( 23958 PWs)   bands (ev):

   -20.4860 -20.2671 -20.2458 -20.0672 -20.0473 -19.9440 -19.6077 -19.4807
   -19.4237 -19.2516 -19.2176 -19.0528  -7.9958  -7.9776  -7.9514  -7.9191
    -7.7808  -7.6971  -7.5416  -7.5079  -7.5042  -7.2806  -7.2359  -7.1925
    -5.5741  -5.2250  -5.1586  -4.6141  -4.4046  -4.1847  -3.5238  -3.2523
    -3.1438  -2.7569  -2.6413  -2.4083  -2.0074  -1.9237  -1.7639  -1.6994
    -1.6269  -1.5818  -1.5016  -1.4061  -1.3767  -1.2927  -1.2034  -1.1490

          k = 0.2996 0.3460-0.3111 ( 23978 PWs)   bands (ev):

   -20.5545 -20.3111 -20.1951 -20.1162 -19.9806 -19.8878 -19.6279 -19.4781
   -19.3725 -19.3245 -19.1885 -19.0354  -8.0104  -7.9981  -7.9203  -7.8838
    -7.7968  -7.7360  -7.6356  -7.5925  -7.5109  -7.2930  -7.2660  -7.1945
    -5.6371  -5.2119  -4.9421  -4.6407  -4.6254  -3.9397  -3.4557  -3.3166
    -3.1469  -2.8319  -2.6270  -2.3083  -1.9065  -1.8562  -1.7747  -1.6812
    -1.6259  -1.5207  -1.4871  -1.4429  -1.3474  -1.3343  -1.1747  -1.1036

          k = 0.1498 0.2595 0.0000 ( 23953 PWs)   bands (ev):

   -20.7259 -20.2346 -20.1487 -19.9803 -19.9088 -19.8088 -19.6951 -19.6033
   -19.5004 -19.3040 -19.2512 -18.8939  -8.0606  -7.9773  -7.9462  -7.8959
    -7.7924  -7.7728  -7.6219  -7.5403  -7.4642  -7.3528  -7.3326  -7.2758
    -6.0026  -4.9276  -4.8225  -4.5325  -4.4983  -3.7833  -3.6029  -3.4628
    -3.3840  -2.7903  -2.7462  -2.0245  -1.8163  -1.7852  -1.7557  -1.6441
    -1.5799  -1.5316  -1.4490  -1.4240  -1.3495  -1.2605  -1.1595  -1.1361

          k = 0.2996-0.1730-1.2442 ( 24004 PWs)   bands (ev):

   -20.5351 -20.4827 -20.1745 -20.0501 -19.9050 -19.8439 -19.5926 -19.5922
   -19.3603 -19.3554 -19.1040 -19.0572  -8.0225  -7.9787  -7.9171  -7.8785
    -7.7879  -7.7751  -7.7401  -7.6184  -7.4991  -7.3466  -7.3091  -7.2326
    -5.4513  -5.4144  -4.8715  -4.7920  -4.3935  -3.9360  -3.3988  -3.3264
    -3.0959  -2.9612  -2.5459  -2.2792  -1.8270  -1.7820  -1.7307  -1.6957
    -1.6093  -1.5210  -1.5042  -1.4151  -1.3750  -1.3018  -1.1062  -1.1051

          k = 0.0000 0.0000 0.9332 ( 23966 PWs)   bands (ev):

   -20.3875 -20.3875 -20.2999 -20.2234 -19.9174 -19.9174 -19.5103 -19.5103
   -19.3041 -19.2111 -19.2111 -19.1922  -7.9918  -7.9918  -7.9426  -7.8713
    -7.7892  -7.7892  -7.6703  -7.5785  -7.5785  -7.2187  -7.2187  -7.1721
    -5.3129  -5.3129  -5.2434  -4.7994  -4.3129  -4.3129  -3.1825  -3.1825
    -3.0924  -2.7139  -2.7139  -2.5800  -1.8529  -1.8529  -1.7177  -1.6816
    -1.5893  -1.5893  -1.4693  -1.4339  -1.4339  -1.2659  -1.2659  -1.0655

          k = 0.4494 0.2595 0.0000 ( 23994 PWs)   bands (ev):

   -20.5800 -20.3321 -20.3249 -20.0536 -19.8342 -19.8085 -19.6580 -19.6169
   -19.3659 -19.2594 -19.1976 -19.0217  -8.0126  -7.9744  -7.9470  -7.8443
    -7.8216  -7.7695  -7.7239  -7.6022  -7.5472  -7.3220  -7.2810  -7.2574
    -5.6091  -5.0880  -5.0204  -4.8456  -4.3465  -3.9424  -3.4753  -3.3526
    -3.0280  -2.8114  -2.7002  -2.2460  -1.8025  -1.7835  -1.7565  -1.6899
    -1.6176  -1.5420  -1.4930  -1.4469  -1.3243  -1.2671  -1.1828  -1.0693

          k = 0.2996 0.1730 0.3111 ( 23959 PWs)   bands (ev):

   -20.6246 -20.2359 -20.1256 -20.1033 -19.9861 -19.8885 -19.6310 -19.5640
   -19.4596 -19.2901 -19.2009 -18.9624  -8.0207  -7.9842  -7.9444  -7.8641
    -7.8000  -7.7106  -7.6302  -7.4771  -7.4433  -7.4132  -7.3422  -7.2340
    -5.7852  -5.0296  -4.9586  -4.5783  -4.5030  -3.9343  -3.5649  -3.3681
    -3.3204  -2.7608  -2.6556  -2.1450  -1.9509  -1.8451  -1.7836  -1.7383
    -1.6507  -1.5404  -1.4556  -1.4129  -1.3258  -1.2781  -1.1868  -1.1247

          k = 0.4494-0.2595-0.9332 ( 23960 PWs)   bands (ev):

   -20.4332 -20.4212 -20.2223 -20.1380 -19.9659 -19.8485 -19.6801 -19.5310
   -19.3449 -19.2560 -19.1890 -19.0399  -7.9943  -7.9657  -7.9353  -7.8359
    -7.7927  -7.7343  -7.6502  -7.5693  -7.4758  -7.4176  -7.3179  -7.2524
    -5.4208  -5.2184  -5.0055  -4.7850  -4.4565  -3.9426  -3.6426  -3.3047
    -2.9896  -2.7575  -2.6937  -2.2509  -1.9406  -1.8668  -1.8151  -1.7454
    -1.7099  -1.5854  -1.4451  -1.4000  -1.3286  -1.2869  -1.1816  -1.0672

          k = 0.2996-0.3460-0.6221 ( 23962 PWs)   bands (ev):

   -20.3751 -20.3515 -20.1893 -20.1862 -20.0056 -19.9955 -19.5732 -19.5520
   -19.3270 -19.3029 -19.1668 -19.0641  -8.0001  -7.9489  -7.9106  -7.8738
    -7.8320  -7.6561  -7.5950  -7.5383  -7.4367  -7.3862  -7.2591  -7.2450
    -5.3591  -5.3075  -4.9535  -4.8796  -4.3314  -4.2710  -3.4325  -3.3250
    -2.9596  -2.9361  -2.6080  -2.3431  -2.0196  -1.8958  -1.8328  -1.8088
    -1.6689  -1.5974  -1.4424  -1.4017  -1.3841  -1.2667  -1.2379  -1.0659

          k = 0.0000 0.0000-1.8663 ( 23976 PWs)   bands (ev):

   -20.2929 -20.2757 -20.1919 -20.1919 -20.1286 -20.1286 -19.4483 -19.4483
   -19.3920 -19.3920 -19.1622 -19.0347  -7.9978  -7.8820  -7.8820  -7.8552
    -7.8552  -7.6532  -7.6415  -7.5390  -7.3967  -7.3967  -7.3361  -7.3361
    -5.3467  -5.1576  -4.7326  -4.7326  -4.5931  -4.5931  -3.1584  -3.1584
    -3.0832  -3.0832  -2.5852  -2.3207  -1.9367  -1.8899  -1.8899  -1.8724
    -1.8724  -1.5492  -1.4001  -1.3327  -1.3327  -1.3091  -1.3091  -1.0031

          k = 0.2996-0.3460 0.3111 ( 23978 PWs)   bands (ev):

   -20.5541 -20.3160 -20.1759 -20.1334 -19.9776 -19.8892 -19.6224 -19.4627
   -19.4286 -19.2664 -19.2110 -19.0347  -8.0174  -7.9820  -7.9309  -7.8477
    -7.8300  -7.7453  -7.6555  -7.5668  -7.5087  -7.2885  -7.2610  -7.2044
    -5.6435  -5.1710  -5.0232  -4.6139  -4.5481  -4.0239  -3.5641  -3.1654
    -3.0419  -2.8744  -2.7533  -2.2615  -1.9216  -1.8152  -1.7713  -1.6863
    -1.6365  -1.5339  -1.4802  -1.4517  -1.3885  -1.2820  -1.1820  -1.1047

     highest occupied level (ev):    -1.0031

!    total energy              =    -413.70121423 Ry
     estimated scf accuracy    <       0.00000002 Ry

     The total energy is the sum of the following terms:
     one-electron contribution =    -264.12313393 Ry
     hartree contribution      =     170.33206948 Ry
     xc contribution           =    -103.51390005 Ry
     ewald contribution        =    -216.39624972 Ry

     convergence has been achieved in  10 iterations

     Forces acting on atoms (cartesian axes, Ry/au):

     atom    1 type  2   force =     0.03898890   -0.13270190   -0.08061062
     atom    2 type  2   force =    -0.03898890    0.13270190    0.08061062
     atom    3 type  2   force =     0.09542877    0.10011632   -0.08061062
     atom    4 type  2   force =    -0.09542877   -0.10011632    0.08061062
     atom    5 type  2   force =    -0.13441766    0.03258558   -0.08061062
     atom    6 type  2   force =     0.13441766   -0.03258558    0.08061062
     atom    7 type  2   force =     0.10578818   -0.08194267    0.06525384
     atom    8 type  2   force =    -0.10578818    0.08194267   -0.06525384
     atom    9 type  2   force =     0.01807035    0.13258658    0.06525384
     atom   10 type  2   force =    -0.01807035   -0.13258658   -0.06525384
     atom   11 type  2   force =    -0.12385852   -0.05064391    0.06525384
     atom   12 type  2   force =     0.12385852    0.05064391   -0.06525384
     atom   13 type  1   force =    -0.05485237    0.10735756   -0.05378582
     atom   14 type  1   force =     0.05485237   -0.10735756    0.05378582
     atom   15 type  1   force =    -0.06554819   -0.10118233   -0.05378582
     atom   16 type  1   force =     0.06554819    0.10118233    0.05378582
     atom   17 type  1   force =     0.12040056   -0.00617523   -0.05378582
     atom   18 type  1   force =    -0.12040056    0.00617523    0.05378582
     atom   19 type  1   force =     0.02485073    0.02327484    0.13411625
     atom   20 type  1   force =    -0.02485073   -0.02327484   -0.13411625
     atom   21 type  1   force =    -0.03258197    0.00988394    0.13411625
     atom   22 type  1   force =     0.03258197   -0.00988394   -0.13411625
     atom   23 type  1   force =     0.00773124   -0.03315878    0.13411625
     atom   24 type  1   force =    -0.00773124    0.03315878   -0.13411625
     atom   25 type  1   force =     0.04001304    0.12925522   -0.00063046
     atom   26 type  1   force =    -0.04001304   -0.12925522    0.00063046
     atom   27 type  1   force =    -0.13194482   -0.02997530   -0.00063046
     atom   28 type  1   force =     0.13194482    0.02997530    0.00063046
     atom   29 type  1   force =     0.09193179   -0.09927992   -0.00063046
     atom   30 type  1   force =    -0.09193179    0.09927992    0.00063046
     atom   31 type  1   force =     0.09018621   -0.08275066   -0.06941675
     atom   32 type  1   force =    -0.09018621    0.08275066    0.06941675
     atom   33 type  1   force =     0.02657107    0.11947888   -0.06941675
     atom   34 type  1   force =    -0.02657107   -0.11947888    0.06941675
     atom   35 type  1   force =    -0.11675728   -0.03672822   -0.06941675
     atom   36 type  1   force =     0.11675728    0.03672822    0.06941675

     Total force =     0.857230     Total SCF correction =     0.000073


     Computing stress (Cartesian axis) and pressure

          total   stress  (Ry/bohr**3)                   (kbar)     P=      235.91
   0.00162087  -0.00000000  -0.00000000          238.44       -0.00       -0.00
   0.00000000   0.00162087   0.00000000            0.00      238.44        0.00
   0.00000000   0.00000000   0.00156932            0.00        0.00      230.85


     Writing all to output data dir ./iceII/iceII.save/ :
     XML data file, charge density, pseudopotentials, collected wavefunctions

     init_run     :      0.83s CPU      0.90s WALL (       1 calls)
     electrons    :      8.92s CPU      9.10s WALL (       1 calls)
     forces       :      0.09s CPU      0.11s WALL (       1 calls)
     stress       :      0.71s CPU      0.72s WALL (       1 calls)

     Called by init_run:
     wfcinit      :      0.31s CPU      0.33s WALL (       1 calls)
     potinit      :      0.02s CPU      0.04s WALL (       1 calls)
     hinit0       :      0.38s CPU      0.40s WALL (       1 calls)

     Called by electrons:
     c_bands      :      7.69s CPU      7.80s WALL (      10 calls)
     sum_band     :      0.94s CPU      0.97s WALL (      10 calls)
     v_of_rho     :      0.20s CPU      0.22s WALL (      11 calls)
     newd         :      0.04s CPU      0.04s WALL (      11 calls)
     mix_rho      :      0.02s CPU      0.02s WALL (      10 calls)

     Called by c_bands:
     init_us_2    :      0.09s CPU      0.10s WALL (      92 calls)
     cegterg      :      7.52s CPU      7.60s WALL (      40 calls)

     Called by *egterg:
     cdiaghg      :      0.67s CPU      0.67s WALL (     166 calls)
     h_psi        :      5.99s CPU      6.07s WALL (     170 calls)
     s_psi        :      0.21s CPU      0.21s WALL (     170 calls)
     g_psi        :      0.01s CPU      0.01s WALL (     126 calls)

     Called by h_psi:
     h_psi:calbec :      0.38s CPU      0.38s WALL (     170 calls)
     vloc_psi     :      5.35s CPU      5.42s WALL (     170 calls)
     add_vuspsi   :      0.23s CPU      0.23s WALL (     170 calls)

     General routines
     calbec       :      0.50s CPU      0.50s WALL (     230 calls)
     fft          :      0.47s CPU      0.48s WALL (     129 calls)
     ffts         :      0.01s CPU      0.01s WALL (      10 calls)
     fftw         :      5.48s CPU      5.54s WALL (   15692 calls)

     Parallel routines

     PWSCF        :     10.85s CPU     11.46s WALL


   This run was terminated on:  17:49:16  23Mar2026            

=------------------------------------------------------------------------------=
   JOB DONE.
=------------------------------------------------------------------------------=
