
     Program PWSCF v.7.3.1 starts on 31Mar2026 at 16:59:50 

     This program is part of the open-source Quantum ESPRESSO suite
     for quantum simulation of materials; please cite
         "P. Giannozzi et al., J. Phys.:Condens. Matter 21 395502 (2009);
         "P. Giannozzi et al., J. Phys.:Condens. Matter 29 465901 (2017);
         "P. Giannozzi et al., J. Chem. Phys. 152 154105 (2020);
          URL http://www.quantum-espresso.org", 
     in publications or presentations arising from this work. More details at
     http://www.quantum-espresso.org/quote

     Parallel version (MPI), running on   128 processors

     MPI processes distributed on     1 nodes
     500704 MiB available memory on the printing compute node when the environment starts

     Waiting for input...
     Reading input from standard input

     Current dimensions of program PWSCF are:
     Max number of different atomic species (ntypx) = 10
     Max number of k-points (npk) =  40000
     Max angular momentum in pseudopotentials (lmaxx) =  4

     K-points division:     npool     =       4
     R & G space division:  proc/nbgrp/npool/nimage =      32
     Subspace diagonalization in iterative solution of the eigenvalue problem:
     a serial algorithm will be used


     Parallelization info
     --------------------
     sticks:   dense  smooth     PW     G-vecs:    dense   smooth      PW
     Min         155     155     46                 6031     6031     974
     Max         156     156     47                 6035     6035     977
     Sum        4973    4973   1473               193055   193055   31213

     Using Slab Decomposition



     bravais-lattice index     =            5
     lattice parameter (alat)  =      13.7317  a.u.
     unit-cell volume          =    1672.8936 (a.u.)^3
     number of atoms/cell      =           36
     number of atomic types    =            2
     number of electrons       =        96.00
     number of Kohn-Sham states=           48
     kinetic-energy cutoff     =      90.0000  Ry
     charge density cutoff     =     360.0000  Ry
     scf convergence threshold =      1.0E-07
     mixing beta               =       0.7000
     number of iterations used =            8  plain     mixing
     energy convergence thresh.=      1.0E-04
     force convergence thresh. =      1.0E-04
     Exchange-correlation=  SLA  PW   PBE  PBE
                           (   1   4   3   4   0   0   0)
     nstep                     =           50


     celldm(1)=  13.731732  celldm(2)=   0.000000  celldm(3)=   0.000000
     celldm(4)=  -0.392337  celldm(5)=   0.000000  celldm(6)=   0.000000

     crystal axes: (cart. coord. in units of alat)
               a(1) = (   0.834367  -0.481722   0.267909 )  
               a(2) = (   0.000000   0.963444   0.267909 )  
               a(3) = (  -0.834367  -0.481722   0.267909 )  

     reciprocal axes: (cart. coord. in units 2 pi/alat)
               b(1) = (  0.599257 -0.345981  1.244203 )  
               b(2) = (  0.000000  0.691962  1.244203 )  
               b(3) = ( -0.599257 -0.345981  1.244203 )  


     PseudoPot. # 1 for H  read from file:
     ./H.pbe-van_ak.UPF
     MD5 check sum: 077eb6d537518a38cb46c6de387227b7
     Pseudo is Ultrasoft, Zval =  1.0
     Generated by new atomic code, or converted to UPF format
     Using radial grid of  615 points,  1 beta functions with: 
                l(1) =   0
     Q(r) pseudized with  8 coefficients,  rinner =    0.800

     PseudoPot. # 2 for O  read from file:
     ./O.pbe-van_ak.UPF
     MD5 check sum: 78c19812648e8988a0fe644b0f25305e
     Pseudo is Ultrasoft, Zval =  6.0
     Generated by new atomic code, or converted to UPF format
     Using radial grid of  737 points,  4 beta functions with: 
                l(1) =   0
                l(2) =   0
                l(3) =   1
                l(4) =   1
     Q(r) pseudized with  8 coefficients,  rinner =    0.800   0.800   0.800


     atomic species   valence    mass     pseudopotential
     H                 1.00     1.00800     H ( 1.00)
     O                 6.00    16.00000     O ( 1.00)

      6 Sym. Ops., with inversion, found



   Cartesian axes

     site n.     atom                  positions (alat units)
         1        O      tau(   1) = (  -0.4847673  -0.5197781   0.3083633  )
         2        O      tau(   2) = (   0.4847673   0.5197782   0.4953638  )
         3        O      tau(   3) = (   0.6925247  -0.1599317   0.3083633  )
         4        O      tau(   4) = (  -0.6925248   0.1599317   0.4953638  )
         5        O      tau(   5) = (  -0.2077574   0.6797099   0.3083633  )
         6        O      tau(   6) = (   0.2077574  -0.6797099   0.4953638  )
         7        O      tau(   7) = (   0.1218176   0.3323883   0.4179381  )
         8        O      tau(   8) = (  -0.1218176  -0.3323883   0.3857890  )
         9        O      tau(   9) = (  -0.3487655  -0.0606970   0.4179381  )
        10        O      tau(  10) = (   0.3487655   0.0606970   0.3857890  )
        11        O      tau(  11) = (   0.2269479  -0.2716913   0.4179381  )
        12        O      tau(  12) = (  -0.2269479   0.2716912   0.3857890  )
        13        H      tau(  13) = (  -0.5381668  -0.4032014   0.2796970  )
        14        H      tau(  14) = (   0.5381668   0.4032014   0.5240301  )
        15        H      tau(  15) = (   0.6182661  -0.2644654   0.2796970  )
        16        H      tau(  16) = (  -0.6182661   0.2644654   0.5240301  )
        17        H      tau(  17) = (  -0.0800993   0.6676668   0.2796970  )
        18        H      tau(  18) = (   0.0800993  -0.6676668   0.5240301  )
        19        H      tau(  19) = (  -0.4872704  -0.4817221   0.4326731  )
        20        H      tau(  20) = (   0.4872704   0.4817221   0.3710540  )
        21        H      tau(  21) = (   0.6608188  -0.1811275   0.4326731  )
        22        H      tau(  22) = (  -0.6608188   0.1811275   0.3710540  )
        23        H      tau(  23) = (  -0.1735484   0.6628496   0.4326731  )
        24        H      tau(  24) = (   0.1735484  -0.6628496   0.3710540  )
        25        H      tau(  25) = (   0.2703349  -0.1502973   0.4058822  )
        26        H      tau(  26) = (  -0.2703350   0.1502973   0.3978449  )
        27        H      tau(  27) = (  -0.0050062   0.3092656   0.4058822  )
        28        H      tau(  28) = (   0.0050062  -0.3092656   0.3978449  )
        29        H      tau(  29) = (  -0.2653287  -0.1589683   0.4058822  )
        30        H      tau(  30) = (   0.2653287   0.1589683   0.3978449  )
        31        H      tau(  31) = (   0.3178939  -0.3347969   0.3493534  )
        32        H      tau(  32) = (  -0.3178939   0.3347969   0.4543737  )
        33        H      tau(  33) = (   0.1309957   0.4427026   0.3493534  )
        34        H      tau(  34) = (  -0.1309956  -0.4427026   0.4543737  )
        35        H      tau(  35) = (  -0.4488895  -0.1079057   0.3493534  )
        36        H      tau(  36) = (   0.4488895   0.1079057   0.4543737  )

     number of k points=    14
                       cart. coord. in units 2pi/alat
        k(    1) = (   0.0000000   0.0000000   0.0000000), wk =   0.0312500
        k(    2) = (  -0.1498141  -0.0864952   0.3110508), wk =   0.1875000
        k(    3) = (   0.2996283   0.1729905  -0.6221017), wk =   0.0937500
        k(    4) = (  -0.1498141   0.0864952   0.6221017), wk =   0.1875000
        k(    5) = (   0.2996283   0.3459809  -0.3110508), wk =   0.1875000
        k(    6) = (   0.1498141   0.2594857   0.0000000), wk =   0.1875000
        k(    7) = (   0.2996283  -0.1729905  -1.2442034), wk =   0.0937500
        k(    8) = (   0.0000000   0.0000000   0.9331525), wk =   0.0625000
        k(    9) = (   0.4494424   0.2594857   0.0000000), wk =   0.1875000
        k(   10) = (   0.2996283   0.1729905   0.3110508), wk =   0.1875000
        k(   11) = (   0.4494424  -0.2594857  -0.9331525), wk =   0.1875000
        k(   12) = (   0.2996283  -0.3459809  -0.6221017), wk =   0.1875000
        k(   13) = (   0.0000000   0.0000000  -1.8663050), wk =   0.0312500
        k(   14) = (   0.2996283  -0.3459809   0.3110508), wk =   0.1875000

     Dense  grid:   193055 G-vectors     FFT dimensions: (  90,  90,  90)

     Estimated max dynamical RAM per process >      13.19 MB

     Estimated total dynamical RAM >       1.51 GB

     Initial potential from superposition of free atoms

     starting charge      95.9998, renormalised to      96.0000
     Starting wfcs are   72 randomized atomic wfcs

     total cpu time spent up to now is        1.1 secs

     per-process dynamical memory:    18.2 Mb

     Self-consistent Calculation

     iteration #  1     ecut=    90.00 Ry     beta= 0.70
     Davidson diagonalization with overlap
     ethr =  1.00E-02,  avg # of iterations =  2.0

     total cpu time spent up to now is        1.9 secs

     total energy              =    -412.05328617 Ry
     estimated scf accuracy    <       4.11392023 Ry

     iteration #  2     ecut=    90.00 Ry     beta= 0.70
     Davidson diagonalization with overlap
     ethr =  4.29E-03,  avg # of iterations =  3.0

     total cpu time spent up to now is        2.8 secs

     total energy              =    -413.38720340 Ry
     estimated scf accuracy    <       1.77489706 Ry

     iteration #  3     ecut=    90.00 Ry     beta= 0.70
     Davidson diagonalization with overlap
     ethr =  1.85E-03,  avg # of iterations =  2.0

     total cpu time spent up to now is        3.5 secs

     total energy              =    -413.59801641 Ry
     estimated scf accuracy    <       0.07375653 Ry

     iteration #  4     ecut=    90.00 Ry     beta= 0.70
     Davidson diagonalization with overlap
     ethr =  7.68E-05,  avg # of iterations =  4.0

     total cpu time spent up to now is        4.6 secs

     total energy              =    -413.64710383 Ry
     estimated scf accuracy    <       0.09377128 Ry

     iteration #  5     ecut=    90.00 Ry     beta= 0.70
     Davidson diagonalization with overlap
     ethr =  7.68E-05,  avg # of iterations =  2.0

     total cpu time spent up to now is        5.3 secs

     total energy              =    -413.65186034 Ry
     estimated scf accuracy    <       0.01378216 Ry

     iteration #  6     ecut=    90.00 Ry     beta= 0.70
     Davidson diagonalization with overlap
     ethr =  1.44E-05,  avg # of iterations =  2.0

     total cpu time spent up to now is        6.0 secs

     total energy              =    -413.65337139 Ry
     estimated scf accuracy    <       0.00210777 Ry

     iteration #  7     ecut=    90.00 Ry     beta= 0.70
     Davidson diagonalization with overlap
     ethr =  2.20E-06,  avg # of iterations =  3.0

     total cpu time spent up to now is        6.9 secs

     total energy              =    -413.65410085 Ry
     estimated scf accuracy    <       0.00000370 Ry

     iteration #  8     ecut=    90.00 Ry     beta= 0.70
     Davidson diagonalization with overlap
     ethr =  3.85E-09,  avg # of iterations =  7.1

     total cpu time spent up to now is        8.4 secs

     total energy              =    -413.65413341 Ry
     estimated scf accuracy    <       0.00001869 Ry

     iteration #  9     ecut=    90.00 Ry     beta= 0.70
     Davidson diagonalization with overlap
     ethr =  3.85E-09,  avg # of iterations =  2.0

     total cpu time spent up to now is        9.1 secs

     total energy              =    -413.65413151 Ry
     estimated scf accuracy    <       0.00000588 Ry

     iteration # 10     ecut=    90.00 Ry     beta= 0.70
     Davidson diagonalization with overlap
     ethr =  3.85E-09,  avg # of iterations =  3.0

     total cpu time spent up to now is       10.0 secs

     total energy              =    -413.65413249 Ry
     estimated scf accuracy    <       0.00000025 Ry

     iteration # 11     ecut=    90.00 Ry     beta= 0.70
     Davidson diagonalization with overlap
     ethr =  2.59E-10,  avg # of iterations =  4.0

     total cpu time spent up to now is       11.0 secs

     End of self-consistent calculation

          k = 0.0000 0.0000 0.0000 ( 24113 PWs)   bands (ev):

   -20.8515 -20.1681 -20.1681 -19.8483 -19.8483 -19.8250 -19.8250 -19.7894
   -19.7772 -19.3409 -19.3409 -18.8889  -7.9229  -7.6749  -7.6321  -7.6321
    -7.4566  -7.4566  -7.0380  -6.8430  -6.8430  -6.6109  -6.6109  -6.4228
    -6.3654  -5.1853  -5.1853  -4.4421  -4.4421  -4.3775  -4.3775  -4.0146
    -3.7499  -3.0286  -3.0286  -2.3088  -1.8537  -1.8537  -1.7124  -1.6332
    -1.5610  -1.5610  -1.4029  -1.4029  -1.3293  -1.3085  -1.2439  -1.2439

          k =-0.1498-0.0865 0.3111 ( 24135 PWs)   bands (ev):

   -20.7441 -20.2251 -20.1511 -20.0580 -20.0328 -19.9228 -19.7115 -19.6526
   -19.5697 -19.3529 -19.2912 -18.9758  -7.8516  -7.7572  -7.6670  -7.5983
    -7.4441  -7.3744  -7.0535  -6.8301  -6.7921  -6.6503  -6.4673  -6.4323
    -6.1537  -5.3649  -5.1892  -4.8721  -4.4854  -4.2908  -4.1497  -3.8645
    -3.8005  -3.0178  -2.9473  -2.4513  -2.0242  -1.9270  -1.7540  -1.6872
    -1.6112  -1.5507  -1.5037  -1.4356  -1.3360  -1.2977  -1.2351  -1.1754

          k = 0.2996 0.1730-0.6221 ( 24144 PWs)   bands (ev):

   -20.4710 -20.4516 -20.2105 -20.1634 -20.0343 -20.0176 -19.6393 -19.6113
   -19.3735 -19.3548 -19.2110 -19.1656  -7.8100  -7.7457  -7.6550  -7.6091
    -7.4620  -7.3817  -6.9918  -6.8329  -6.7718  -6.6614  -6.3510  -6.3480
    -5.8200  -5.6543  -5.2451  -5.0856  -4.4779  -4.3853  -4.1244  -3.9463
    -3.2914  -3.2148  -2.8753  -2.6372  -2.1774  -1.9645  -1.7902  -1.7647
    -1.6651  -1.6223  -1.5127  -1.4281  -1.4228  -1.2481  -1.2228  -1.1188

          k =-0.1498 0.0865 0.6221 ( 24096 PWs)   bands (ev):

   -20.5238 -20.3237 -20.2999 -20.1228 -20.0951 -20.0033 -19.6415 -19.5223
   -19.4683 -19.2979 -19.2727 -19.1326  -7.8214  -7.7200  -7.6983  -7.5705
    -7.4766  -7.3553  -6.9917  -6.8958  -6.8189  -6.5083  -6.4185  -6.3454
    -5.8278  -5.5678  -5.4374  -4.8650  -4.6430  -4.4294  -4.0389  -3.7984
    -3.5691  -2.9937  -2.9312  -2.6678  -2.1449  -2.0250  -1.7825  -1.7039
    -1.6677  -1.6104  -1.5458  -1.4426  -1.4014  -1.2575  -1.2329  -1.1095

          k = 0.2996 0.3460-0.3111 ( 24118 PWs)   bands (ev):

   -20.6040 -20.3729 -20.1993 -20.1852 -20.0388 -19.9566 -19.6375 -19.5021
   -19.4808 -19.3467 -19.2637 -19.0983  -7.8385  -7.7992  -7.6175  -7.5906
    -7.5058  -7.3864  -7.0555  -6.9730  -6.8114  -6.4694  -6.4323  -6.3270
    -5.9907  -5.5942  -5.3038  -4.9029  -4.8366  -4.1977  -4.0041  -3.6938
    -3.4198  -3.1708  -2.9311  -2.6233  -2.0035  -1.9200  -1.8038  -1.7157
    -1.6374  -1.5642  -1.4995  -1.4706  -1.3567  -1.3159  -1.2315  -1.0872

          k = 0.1498 0.2595 0.0000 ( 24127 PWs)   bands (ev):

   -20.7748 -20.2890 -20.2032 -20.0042 -19.9666 -19.8495 -19.7433 -19.6348
   -19.5817 -19.3602 -19.3041 -18.9584  -7.9001  -7.7780  -7.6546  -7.5824
    -7.4285  -7.4150  -7.1530  -6.9514  -6.7148  -6.6114  -6.5015  -6.3557
    -6.3326  -5.3236  -5.1551  -4.8718  -4.7499  -4.1467  -3.9707  -3.8573
    -3.6128  -3.1094  -3.0184  -2.3848  -1.8595  -1.8236  -1.7697  -1.6765
    -1.6227  -1.5842  -1.4261  -1.3969  -1.3568  -1.3353  -1.1971  -1.1750

          k = 0.2996-0.1730-1.2442 ( 24140 PWs)   bands (ev):

   -20.5925 -20.5294 -20.2321 -20.0682 -19.9724 -19.8703 -19.6687 -19.5997
   -19.4522 -19.4083 -19.1506 -19.1236  -7.8777  -7.8218  -7.6458  -7.6071
    -7.4158  -7.3902  -7.1699  -7.0634  -6.7107  -6.6377  -6.4010  -6.3340
    -5.8660  -5.8298  -5.2485  -5.0139  -4.6404  -4.2768  -3.7997  -3.5357
    -3.4043  -3.3918  -2.8427  -2.6178  -1.8889  -1.8097  -1.7694  -1.7290
    -1.6331  -1.5223  -1.5219  -1.4115  -1.4073  -1.3294  -1.1458  -1.1349

          k = 0.0000 0.0000 0.9332 ( 24152 PWs)   bands (ev):

   -20.4482 -20.4482 -20.3342 -20.2456 -19.9832 -19.9832 -19.5304 -19.5304
   -19.3725 -19.2820 -19.2642 -19.2642  -7.8013  -7.8013  -7.6256  -7.5337
    -7.5026  -7.5026  -7.0643  -6.9354  -6.9354  -6.3444  -6.3444  -6.2904
    -5.7332  -5.7332  -5.7189  -4.9232  -4.5282  -4.5282  -3.7465  -3.5388
    -3.5388  -3.0087  -3.0087  -2.8515  -1.9261  -1.9261  -1.7735  -1.6662
    -1.6056  -1.6056  -1.5098  -1.4482  -1.4482  -1.2965  -1.2965  -1.0548

          k = 0.4494 0.2595 0.0000 ( 24129 PWs)   bands (ev):

   -20.6324 -20.3918 -20.3743 -20.0672 -19.8942 -19.8600 -19.6874 -19.6646
   -19.4530 -19.3068 -19.2536 -19.0827  -7.8647  -7.8141  -7.7178  -7.5275
    -7.4534  -7.3863  -7.1838  -6.9973  -6.8375  -6.5000  -6.4205  -6.3703
    -6.0116  -5.5407  -5.4454  -4.9610  -4.6302  -4.2828  -3.7412  -3.7033
    -3.4528  -3.1291  -2.9839  -2.5906  -1.8589  -1.8483  -1.7516  -1.7331
    -1.6434  -1.5602  -1.4744  -1.4417  -1.3627  -1.2982  -1.2182  -1.1086

          k = 0.2996 0.1730 0.3111 ( 24086 PWs)   bands (ev):

   -20.6717 -20.2969 -20.1745 -20.1432 -20.0297 -19.9434 -19.6599 -19.6286
   -19.5105 -19.3429 -19.2540 -19.0302  -7.8606  -7.7913  -7.6912  -7.5326
    -7.4983  -7.3048  -7.1029  -6.9227  -6.7001  -6.6069  -6.5369  -6.3989
    -6.0239  -5.3524  -5.1413  -5.0437  -4.8024  -4.3274  -3.9685  -3.7201
    -3.5750  -3.0768  -2.9546  -2.4812  -2.0301  -1.9488  -1.8309  -1.7768
    -1.6359  -1.5836  -1.4777  -1.4284  -1.3134  -1.2672  -1.1862  -1.1712

          k = 0.4494-0.2595-0.9332 ( 24138 PWs)   bands (ev):

   -20.4882 -20.4698 -20.2793 -20.1686 -20.0098 -19.9056 -19.7156 -19.5981
   -19.3846 -19.3164 -19.2362 -19.1115  -7.8937  -7.7700  -7.7215  -7.5282
    -7.4691  -7.2891  -7.1694  -6.8902  -6.7283  -6.6576  -6.4554  -6.4041
    -5.6745  -5.6325  -5.2298  -5.0731  -4.8438  -4.4383  -3.9075  -3.5826
    -3.2619  -3.1635  -2.9900  -2.5729  -2.0124  -1.9725  -1.9269  -1.7809
    -1.7325  -1.6080  -1.4087  -1.3765  -1.3269  -1.2816  -1.1893  -1.1231

          k = 0.2996-0.3460-0.6221 ( 24122 PWs)   bands (ev):

   -20.4204 -20.3927 -20.2569 -20.2255 -20.0622 -20.0547 -19.6106 -19.5922
   -19.3733 -19.3558 -19.2054 -19.1518  -7.9071  -7.6673  -7.6332  -7.5989
    -7.5511  -7.2863  -7.0261  -6.9086  -6.6844  -6.6341  -6.4169  -6.4100
    -5.6314  -5.4869  -5.2777  -5.1445  -4.7454  -4.6946  -3.8114  -3.7270
    -3.2681  -3.2260  -2.9628  -2.5533  -2.2134  -2.0019  -1.9182  -1.8306
    -1.7461  -1.5629  -1.4718  -1.4168  -1.3779  -1.2268  -1.2015  -1.0971

          k = 0.0000 0.0000-1.8663 ( 24090 PWs)   bands (ev):

   -20.3634 -20.2996 -20.2211 -20.2211 -20.2015 -20.2015 -19.5069 -19.5069
   -19.4311 -19.4311 -19.1823 -19.1328  -7.9690  -7.6041  -7.6041  -7.5963
    -7.5963  -7.2652  -7.0800  -6.9161  -6.5612  -6.5612  -6.5274  -6.5274
    -5.3907  -5.2412  -5.1595  -5.1595  -5.0938  -5.0938  -3.5323  -3.5323
    -3.3243  -3.3243  -2.9581  -2.4919  -2.2497  -2.0124  -2.0124  -1.8911
    -1.8911  -1.4861  -1.4721  -1.3216  -1.3216  -1.2445  -1.2445  -1.0619

          k = 0.2996-0.3460 0.3111 ( 24118 PWs)   bands (ev):

   -20.6044 -20.3675 -20.2264 -20.1657 -20.0339 -19.9558 -19.6425 -19.5262
   -19.4368 -19.3762 -19.2483 -19.1021  -7.8549  -7.7623  -7.6596  -7.5692
    -7.4905  -7.3906  -7.1210  -6.9293  -6.7850  -6.5180  -6.3857  -6.3534
    -5.9731  -5.5123  -5.4290  -4.9386  -4.6877  -4.2795  -4.0935  -3.5766
    -3.3801  -3.1612  -3.0396  -2.5830  -2.0184  -1.8763  -1.8204  -1.7146
    -1.6548  -1.5662  -1.5066  -1.4656  -1.3793  -1.2759  -1.2308  -1.0987

     highest occupied level (ev):    -1.0548

!    total energy              =    -413.65413265 Ry
     estimated scf accuracy    <       0.00000002 Ry

     The total energy is the sum of the following terms:
     one-electron contribution =    -265.64404826 Ry
     hartree contribution      =     170.96435714 Ry
     xc contribution           =    -103.18794027 Ry
     ewald contribution        =    -215.78650127 Ry

     convergence has been achieved in  11 iterations

     Forces acting on atoms (cartesian axes, Ry/au):

     atom    1 type  2   force =     0.01227646   -0.06268003   -0.05548570
     atom    2 type  2   force =    -0.01227646    0.06268003    0.05548570
     atom    3 type  2   force =     0.04814427    0.04197174   -0.05548570
     atom    4 type  2   force =    -0.04814427   -0.04197174    0.05548570
     atom    5 type  2   force =    -0.06042073    0.02070829   -0.05548570
     atom    6 type  2   force =     0.06042073   -0.02070829    0.05548570
     atom    7 type  2   force =     0.07227617   -0.04538480    0.04300398
     atom    8 type  2   force =    -0.07227617    0.04538480   -0.04300398
     atom    9 type  2   force =     0.00316631    0.08528540    0.04300398
     atom   10 type  2   force =    -0.00316631   -0.08528540   -0.04300398
     atom   11 type  2   force =    -0.07544248   -0.03990059    0.04300398
     atom   12 type  2   force =     0.07544248    0.03990059   -0.04300398
     atom   13 type  1   force =    -0.04421074    0.07458193   -0.09083256
     atom   14 type  1   force =     0.04421074   -0.07458193    0.09083256
     atom   15 type  1   force =    -0.04248448   -0.07557858   -0.09083256
     atom   16 type  1   force =     0.04248448    0.07557858    0.09083256
     atom   17 type  1   force =     0.08669521    0.00099666   -0.09083256
     atom   18 type  1   force =    -0.08669521   -0.00099666    0.09083256
     atom   19 type  1   force =     0.03438725   -0.02039114    0.13264384
     atom   20 type  1   force =    -0.03438725    0.02039114   -0.13264384
     atom   21 type  1   force =     0.00046562    0.03997581    0.13264384
     atom   22 type  1   force =    -0.00046562   -0.03997581   -0.13264384
     atom   23 type  1   force =    -0.03485287   -0.01958466    0.13264384
     atom   24 type  1   force =     0.03485287    0.01958466   -0.13264384
     atom   25 type  1   force =     0.02163441    0.11757280    0.00585454
     atom   26 type  1   force =    -0.02163441   -0.11757280   -0.00585454
     atom   27 type  1   force =    -0.11263824   -0.04005046    0.00585454
     atom   28 type  1   force =     0.11263824    0.04005046   -0.00585454
     atom   29 type  1   force =     0.09100383   -0.07752235    0.00585454
     atom   30 type  1   force =    -0.09100383    0.07752235   -0.00585454
     atom   31 type  1   force =     0.05198883   -0.07716743   -0.04655899
     atom   32 type  1   force =    -0.05198883    0.07716743    0.04655899
     atom   33 type  1   force =     0.04083454    0.08360737   -0.04655899
     atom   34 type  1   force =    -0.04083454   -0.08360737    0.04655899
     atom   35 type  1   force =    -0.09282337   -0.00643994   -0.04655899
     atom   36 type  1   force =     0.09282337    0.00643994    0.04655899

     Total force =     0.677063     Total SCF correction =     0.000078


     Computing stress (Cartesian axis) and pressure

          total   stress  (Ry/bohr**3)                   (kbar)     P=      199.96
   0.00130187  -0.00000000   0.00000000          191.51       -0.00        0.00
   0.00000000   0.00130187   0.00000000            0.00      191.51        0.00
  -0.00000000   0.00000000   0.00147426           -0.00        0.00      216.87


     BFGS Geometry Optimization
     Energy error            =      0.0E+00 Ry
     Gradient error          =      1.3E-01 Ry/Bohr

     number of scf cycles    =   1
     number of bfgs steps    =   0

     energy             new  =    -413.6541326480 Ry

     new trust radius        =       0.1385376107 bohr
     new conv_thr            =       0.0000001000 Ry


ATOMIC_POSITIONS (crystal)
O                0.2700875761        0.0158140194        0.8500160498
O                0.7299124239        0.9841859916        0.1499839202
O                0.8500160498        0.2700875761        0.0158140194
O                0.1499839202        0.7299124239        0.9841859916
O                0.0158140194        0.8500160498        0.2700875761
O                0.9841859916        0.1499839202        0.7299124239
O                0.4861941398        0.7516094938        0.3338858380
O                0.5138058602        0.2483905062        0.6661141320
O                0.3338858380        0.4861941398        0.7516094938
O                0.6661141320        0.5138058602        0.2483905062
O                0.7516094938        0.3338858380        0.4861941398
O                0.2483905062        0.6661141320        0.5138058602
H                0.1529613454        0.0645281424        0.8018200779
H                0.8470386406        0.9354718496        0.1981799221
H                0.8018200779        0.1529613454        0.0645281424
H                0.1981799221        0.8470386406        0.9354718496
H                0.0645281424        0.8018200779        0.1529613454
H                0.9354718496        0.1981799221        0.8470386406
H                0.4270330064        0.2159910384        1.0080316589
H                0.5729669936        0.7840089766       -0.0080316799
H                1.0080316589        0.4270330064        0.2159910384
H               -0.0080316799        0.5729669936        0.7840089766
H                0.2159910384        1.0080316589        0.4270330064
H                0.7840089766       -0.0080316799        0.5729669936
H                0.7175122486        0.4074551244        0.3916240146
H                0.2824877514        0.5925448456        0.6083760154
H                0.3916240146        0.7175122486        0.4074551244
H                0.6083760154        0.2824877514        0.5925448456
H                0.4074551244        0.3916240146        0.7175122486
H                0.5925448456        0.6083760154        0.2824877514
H                0.7409944814        0.1948928032        0.3554568841
H                0.2590055186        0.8051071818        0.6445431159
H                0.3554568841        0.7409944814        0.1948928032
H                0.6445431159        0.2590055186        0.8051071818
H                0.1948928032        0.3554568841        0.7409944814
H                0.8051071818        0.6445431159        0.2590055186



     Writing config-only to output data dir ./iceII/iceII.save/ :
     XML data file
     NEW-OLD atomic charge density approx. for the potential

     total cpu time spent up to now is       12.0 secs

     per-process dynamical memory:    27.3 Mb

     Self-consistent Calculation

     iteration #  1     ecut=    90.00 Ry     beta= 0.70
     Davidson diagonalization with overlap
     ethr =  1.00E-06,  avg # of iterations = 10.0

     total cpu time spent up to now is       14.1 secs

     total energy              =    -413.77860050 Ry
     estimated scf accuracy    <       0.10010599 Ry

     iteration #  2     ecut=    90.00 Ry     beta= 0.70
     Davidson diagonalization with overlap
     ethr =  1.04E-04,  avg # of iterations =  2.6

     total cpu time spent up to now is       14.9 secs

     total energy              =    -413.80743859 Ry
     estimated scf accuracy    <       0.02005493 Ry

     iteration #  3     ecut=    90.00 Ry     beta= 0.70
     Davidson diagonalization with overlap
     ethr =  2.09E-05,  avg # of iterations =  2.0

     total cpu time spent up to now is       15.5 secs

     total energy              =    -413.80888662 Ry
     estimated scf accuracy    <       0.00093095 Ry

     iteration #  4     ecut=    90.00 Ry     beta= 0.70
     Davidson diagonalization with overlap
     ethr =  9.70E-07,  avg # of iterations =  3.3

     total cpu time spent up to now is       16.4 secs

     total energy              =    -413.80933005 Ry
     estimated scf accuracy    <       0.00054822 Ry

     iteration #  5     ecut=    90.00 Ry     beta= 0.70
     Davidson diagonalization with overlap
     ethr =  5.71E-07,  avg # of iterations =  2.1

     total cpu time spent up to now is       17.2 secs

     total energy              =    -413.80947550 Ry
     estimated scf accuracy    <       0.00001178 Ry

     iteration #  6     ecut=    90.00 Ry     beta= 0.70
     Davidson diagonalization with overlap
     ethr =  1.23E-08,  avg # of iterations =  4.0

     total cpu time spent up to now is       18.1 secs

     total energy              =    -413.80947325 Ry
     estimated scf accuracy    <       0.00001819 Ry

     iteration #  7     ecut=    90.00 Ry     beta= 0.70
     Davidson diagonalization with overlap
     ethr =  1.23E-08,  avg # of iterations =  3.0

     total cpu time spent up to now is       18.9 secs

     total energy              =    -413.80947707 Ry
     estimated scf accuracy    <       0.00000016 Ry

     iteration #  8     ecut=    90.00 Ry     beta= 0.70
     Davidson diagonalization with overlap
     ethr =  1.69E-10,  avg # of iterations =  5.5

     total cpu time spent up to now is       20.2 secs

     total energy              =    -413.80947714 Ry
     estimated scf accuracy    <       0.00000103 Ry

     iteration #  9     ecut=    90.00 Ry     beta= 0.70
     Davidson diagonalization with overlap
     ethr =  1.69E-10,  avg # of iterations =  4.0

     total cpu time spent up to now is       21.2 secs

     End of self-consistent calculation

          k = 0.0000 0.0000 0.0000 ( 24113 PWs)   bands (ev):

   -20.0449 -19.2613 -19.2613 -18.8682 -18.8682 -18.8407 -18.8407 -18.8125
   -18.7941 -18.2528 -18.2528 -17.6731  -7.3554  -7.3404  -7.2511  -7.2511
    -6.9669  -6.7848  -6.7848  -6.2828  -6.2828  -6.0269  -6.0269  -5.9413
    -5.7270  -4.9438  -4.9438  -4.2282  -4.2282  -4.1540  -4.1540  -3.6785
    -3.4410  -2.6631  -2.6631  -1.8251  -1.5909  -1.5909  -1.4118  -1.3261
    -1.2765  -1.2765  -1.1873  -1.1873  -1.1142  -1.0672  -1.0672  -0.9942

          k =-0.1498-0.0865 0.3111 ( 24135 PWs)   bands (ev):

   -19.9255 -19.3317 -19.2596 -19.1126 -19.0570 -18.9486 -18.7291 -18.6532
   -18.5452 -18.2604 -18.1853 -17.7857  -7.3612  -7.3070  -7.2674  -7.1355
    -6.9518  -6.7683  -6.6941  -6.3639  -6.3052  -6.0666  -5.8614  -5.8127
    -5.6007  -5.1233  -4.8681  -4.6852  -4.3284  -4.0497  -3.9261  -3.5394
    -3.5210  -2.6449  -2.5673  -2.0678  -1.7510  -1.6711  -1.5083  -1.4103
    -1.3480  -1.2754  -1.2137  -1.1995  -1.1433  -1.0758  -1.0466  -0.9541

          k = 0.2996 0.1730-0.6221 ( 24144 PWs)   bands (ev):

   -19.6488 -19.5642 -19.3206 -19.2288 -19.0847 -19.0356 -18.6634 -18.6024
   -18.3249 -18.2411 -18.0797 -18.0233  -7.3625  -7.2810  -7.2273  -7.0620
    -6.9052  -6.8250  -6.5776  -6.4163  -6.2725  -6.1421  -5.6697  -5.6574
    -5.3928  -5.3674  -4.8831  -4.8710  -4.3329  -4.2956  -3.8093  -3.6519
    -2.9748  -2.8986  -2.5139  -2.3170  -1.9092  -1.7390  -1.5573  -1.5218
    -1.4065  -1.2682  -1.2611  -1.2500  -1.1679  -1.0741  -0.9931  -0.9150

          k =-0.1498 0.0865 0.6221 ( 24096 PWs)   bands (ev):

   -19.6873 -19.4458 -19.4083 -19.1982 -19.1373 -19.0366 -18.6511 -18.5081
   -18.4166 -18.1934 -18.1556 -17.9792  -7.3718  -7.2998  -7.2436  -6.9766
    -6.8833  -6.8315  -6.6365  -6.4294  -6.3478  -5.9504  -5.7843  -5.6692
    -5.4082  -5.2725  -5.1174  -4.6159  -4.4450  -4.3022  -3.7464  -3.5105
    -3.3096  -2.6900  -2.5071  -2.3682  -1.8962  -1.7865  -1.5457  -1.4218
    -1.3896  -1.3483  -1.2869  -1.2133  -1.1815  -1.0789  -1.0033  -0.8990

          k = 0.2996 0.3460-0.3111 ( 24118 PWs)   bands (ev):

   -19.7659 -19.4883 -19.3613 -19.2109 -19.0924 -18.9937 -18.6449 -18.4933
   -18.3554 -18.3088 -18.1271 -17.9500  -7.3930  -7.2357  -7.2008  -7.1404
    -7.0594  -6.8371  -6.5841  -6.4755  -6.3451  -5.9864  -5.8218  -5.6226
    -5.5895  -5.3043  -5.0807  -4.7162  -4.5382  -3.9459  -3.7180  -3.3991
    -3.1148  -2.8059  -2.5670  -2.3099  -1.7169  -1.6582  -1.5341  -1.4742
    -1.3662  -1.3194  -1.2548  -1.2254  -1.1273  -1.1130  -1.0061  -0.8842

          k = 0.1498 0.2595 0.0000 ( 24127 PWs)   bands (ev):

   -19.9574 -19.3980 -19.2972 -19.0726 -19.0163 -18.8779 -18.7414 -18.6134
   -18.5434 -18.2746 -18.2098 -17.7666  -7.4038  -7.3479  -7.2252  -7.1573
    -6.9534  -6.8275  -6.7813  -6.4319  -6.2878  -6.0947  -5.9342  -5.8150
    -5.6856  -5.0675  -4.9251  -4.6376  -4.5455  -3.8214  -3.6569  -3.5924
    -3.3056  -2.7569  -2.6681  -1.9302  -1.5963  -1.5581  -1.4703  -1.4222
    -1.3605  -1.3257  -1.1937  -1.1699  -1.1225  -1.0682  -0.9868  -0.9783

          k = 0.2996-0.1730-1.2442 ( 24140 PWs)   bands (ev):

   -19.7481 -19.6757 -19.3267 -19.1529 -19.0207 -18.9127 -18.6402 -18.5803
   -18.3633 -18.3436 -18.0126 -17.9896  -7.3856  -7.3750  -7.1588  -7.1191
    -7.0198  -6.9409  -6.6223  -6.5666  -6.2375  -6.2024  -5.7549  -5.6812
    -5.5720  -5.4875  -5.1119  -4.7284  -4.3500  -3.9313  -3.4248  -3.1893
    -3.1758  -3.0420  -2.4751  -2.2880  -1.6181  -1.5204  -1.4878  -1.4704
    -1.3637  -1.2937  -1.2425  -1.2196  -1.1421  -1.1185  -0.9329  -0.9182

          k = 0.0000 0.0000 0.9332 ( 24152 PWs)   bands (ev):

   -19.5814 -19.5814 -19.4943 -19.2939 -19.0377 -19.0377 -18.4932 -18.4932
   -18.3145 -18.1658 -18.1501 -18.1501  -7.2694  -7.2694  -7.2597  -7.0369
    -7.0369  -7.0061  -6.5248  -6.4914  -6.4914  -5.7244  -5.7244  -5.5582
    -5.4977  -5.4977  -5.4677  -4.7530  -4.2408  -4.2408  -3.4677  -3.1831
    -3.1831  -2.6731  -2.6731  -2.6077  -1.6556  -1.6556  -1.4528  -1.3934
    -1.3408  -1.3408  -1.2612  -1.2612  -1.1923  -1.1031  -1.1031  -0.8521

          k = 0.4494 0.2595 0.0000 ( 24129 PWs)   bands (ev):

   -19.7941 -19.5149 -19.4967 -19.1428 -18.9472 -18.8903 -18.6799 -18.6335
   -18.3731 -18.2143 -18.1482 -17.9316  -7.3851  -7.3308  -7.2320  -7.1679
    -6.9471  -6.8954  -6.6693  -6.5342  -6.3825  -6.0098  -5.8523  -5.7024
    -5.5938  -5.2936  -5.2780  -4.6921  -4.3211  -3.9405  -3.4104  -3.3936
    -3.0966  -2.8277  -2.6554  -2.2327  -1.5848  -1.5642  -1.4762  -1.4463
    -1.3971  -1.3180  -1.2279  -1.1796  -1.1506  -1.0665  -1.0233  -0.8885

          k = 0.2996 0.1730 0.3111 ( 24086 PWs)   bands (ev):

   -19.8427 -19.4115 -19.2825 -19.2192 -19.0715 -18.9667 -18.6725 -18.6102
   -18.4664 -18.2510 -18.1383 -17.8584  -7.4243  -7.2946  -7.2439  -7.1415
    -6.9003  -6.8024  -6.6524  -6.4878  -6.1772  -6.0816  -6.0097  -5.7146
    -5.5248  -5.0928  -4.8401  -4.7863  -4.6293  -4.0688  -3.6735  -3.4309
    -3.3317  -2.7022  -2.5771  -2.1063  -1.7619  -1.6973  -1.5652  -1.5361
    -1.3853  -1.3596  -1.2193  -1.1595  -1.1237  -1.0262  -0.9919  -0.9290

          k = 0.4494-0.2595-0.9332 ( 24138 PWs)   bands (ev):

   -19.6309 -19.6121 -19.3905 -19.2540 -19.0638 -18.9202 -18.7376 -18.5616
   -18.3160 -18.2165 -18.1225 -17.9622  -7.4773  -7.2513  -7.2243  -7.1481
    -6.9744  -6.7974  -6.5828  -6.4265  -6.2794  -6.1548  -5.8803  -5.7266
    -5.3886  -5.2511  -5.0741  -4.7261  -4.5261  -4.1298  -3.6551  -3.3222
    -2.9887  -2.7322  -2.6748  -2.2278  -1.7483  -1.7011  -1.6712  -1.5459
    -1.5034  -1.3638  -1.1893  -1.1314  -1.0985  -1.0643  -0.9730  -0.8730

          k = 0.2996-0.3460-0.6221 ( 24122 PWs)   bands (ev):

   -19.5908 -19.4982 -19.3698 -19.3169 -19.1094 -19.0849 -18.6144 -18.5801
   -18.2936 -18.2666 -18.1001 -17.9886  -7.4976  -7.2656  -7.1263  -7.0423
    -6.9636  -6.8561  -6.5048  -6.4574  -6.1959  -6.1211  -5.7675  -5.7504
    -5.2499  -5.1634  -4.9421  -4.8266  -4.5968  -4.5059  -3.5422  -3.4260
    -3.0235  -2.9725  -2.5098  -2.2583  -1.9423  -1.7552  -1.6732  -1.5925
    -1.4896  -1.3729  -1.2037  -1.1772  -1.1435  -1.0238  -0.9830  -0.8559

          k = 0.0000 0.0000-1.8663 ( 24090 PWs)   bands (ev):

   -19.5177 -19.3756 -19.3756 -19.3714 -19.2293 -19.2293 -18.4652 -18.4652
   -18.3696 -18.3696 -18.0883 -17.9522  -7.5921  -7.1844  -7.0308  -7.0308
    -7.0158  -7.0158  -6.4493  -6.4273  -5.9903  -5.9903  -5.9757  -5.9757
    -4.9670  -4.9670  -4.9047  -4.8721  -4.8043  -4.8043  -3.1966  -3.1966
    -3.1635  -3.1635  -2.4823  -2.2119  -1.9519  -1.7657  -1.7657  -1.6721
    -1.6721  -1.3288  -1.1440  -1.1174  -1.1174  -1.0182  -1.0182  -0.8015

          k = 0.2996-0.3460 0.3111 ( 24118 PWs)   bands (ev):

   -19.7643 -19.5064 -19.3190 -19.2371 -19.0926 -18.9980 -18.6293 -18.4819
   -18.4247 -18.2373 -18.1533 -17.9481  -7.3611  -7.2817  -7.2321  -7.0812
    -7.0428  -6.8513  -6.6662  -6.4366  -6.2983  -6.0627  -5.7474  -5.6634
    -5.5193  -5.2746  -5.1913  -4.6890  -4.4798  -4.0242  -3.7922  -3.2817
    -3.0278  -2.8068  -2.7434  -2.2291  -1.7416  -1.6023  -1.5559  -1.4607
    -1.4322  -1.2782  -1.2688  -1.1900  -1.1796  -1.0815  -1.0056  -0.8906

     highest occupied level (ev):    -0.8015

!    total energy              =    -413.80947728 Ry
     estimated scf accuracy    <       0.00000002 Ry

     The total energy is the sum of the following terms:
     one-electron contribution =    -251.55234226 Ry
     hartree contribution      =     164.77194911 Ry
     xc contribution           =    -101.71657534 Ry
     ewald contribution        =    -225.31250879 Ry

     convergence has been achieved in   9 iterations

     Forces acting on atoms (cartesian axes, Ry/au):

     atom    1 type  2   force =    -0.02964547    0.05152980    0.04567134
     atom    2 type  2   force =     0.02964547   -0.05152980   -0.04567134
     atom    3 type  2   force =    -0.02980338   -0.05143863    0.04567134
     atom    4 type  2   force =     0.02980338    0.05143863   -0.04567134
     atom    5 type  2   force =     0.05944885   -0.00009117    0.04567134
     atom    6 type  2   force =    -0.05944885    0.00009117   -0.04567134
     atom    7 type  2   force =    -0.05003237    0.02305772   -0.02424760
     atom    8 type  2   force =     0.05003237   -0.02305772    0.02424760
     atom    9 type  2   force =     0.00504762   -0.05485816   -0.02424760
     atom   10 type  2   force =    -0.00504762    0.05485816    0.02424760
     atom   11 type  2   force =     0.04498475    0.03180044   -0.02424760
     atom   12 type  2   force =    -0.04498475   -0.03180044    0.02424760
     atom   13 type  1   force =     0.00023967   -0.01978614   -0.04539548
     atom   14 type  1   force =    -0.00023967    0.01978614    0.04539548
     atom   15 type  1   force =     0.01701546    0.01010063   -0.04539548
     atom   16 type  1   force =    -0.01701546   -0.01010063    0.04539548
     atom   17 type  1   force =    -0.01725514    0.00968551   -0.04539548
     atom   18 type  1   force =     0.01725514   -0.00968551    0.04539548
     atom   19 type  1   force =     0.02981723   -0.04123673   -0.01394265
     atom   20 type  1   force =    -0.02981723    0.04123673    0.01394265
     atom   21 type  1   force =     0.02080344    0.04644084   -0.01394265
     atom   22 type  1   force =    -0.02080344   -0.04644084    0.01394265
     atom   23 type  1   force =    -0.05062067   -0.00520411   -0.01394265
     atom   24 type  1   force =     0.05062067    0.00520411    0.01394265
     atom   25 type  1   force =    -0.02345610   -0.00994097    0.02073032
     atom   26 type  1   force =     0.02345610    0.00994097   -0.02073032
     atom   27 type  1   force =     0.02033718   -0.01534309    0.02073032
     atom   28 type  1   force =    -0.02033718    0.01534309   -0.02073032
     atom   29 type  1   force =     0.00311892    0.02528406    0.02073032
     atom   30 type  1   force =    -0.00311892   -0.02528406   -0.02073032
     atom   31 type  1   force =    -0.02809718   -0.02139732    0.01410056
     atom   32 type  1   force =     0.02809718    0.02139732   -0.01410056
     atom   33 type  1   force =     0.03257921   -0.01363421    0.01410056
     atom   34 type  1   force =    -0.03257921    0.01363421   -0.01410056
     atom   35 type  1   force =    -0.00448204    0.03503153    0.01410056
     atom   36 type  1   force =     0.00448204   -0.03503153   -0.01410056

     Total force =     0.319412     Total SCF correction =     0.000167


     Computing stress (Cartesian axis) and pressure

          total   stress  (Ry/bohr**3)                   (kbar)     P=       10.52
   0.00004344   0.00000000   0.00000000            6.39        0.00        0.00
  -0.00000000   0.00004344   0.00000000           -0.00        6.39        0.00
   0.00000000   0.00000000   0.00012771            0.00        0.00       18.79

     Energy error            =      1.6E-01 Ry
     Gradient error          =      5.9E-02 Ry/Bohr

     number of scf cycles    =   2
     number of bfgs steps    =   1

     energy             old  =    -413.6541326480 Ry
     energy             new  =    -413.8094772824 Ry

     CASE: energy            _new < energy            _old

     new trust radius        =       0.0541999269 bohr
     new conv_thr            =       0.0000001000 Ry


ATOMIC_POSITIONS (crystal)
O                0.2709905902        0.0204358266        0.8530118439
O                0.7290094098        0.9795641844        0.1469881261
O                0.8530118439        0.2709905902        0.0204358266
O                0.1469881261        0.7290094098        0.9795641844
O                0.0204358266        0.8530118439        0.2709905902
O                0.9795641844        0.1469881261        0.7290094098
O                0.4831202809        0.7509528804        0.3336557222
O                0.5168797191        0.2490471196        0.6663442478
O                0.3336557222        0.4831202809        0.7509528804
O                0.6663442478        0.5168797191        0.2490471196
O                0.7509528804        0.3336557222        0.4831202809
O                0.2490471196        0.6663442478        0.5168797191
H                0.1479767621        0.0593873400        0.7974074050
H                0.8520232239        0.9406126520        0.2025925950
H                0.7974074050        0.1479767621        0.0593873400
H                0.2025925950        0.8520232239        0.9406126520
H                0.0593873400        0.7974074050        0.1479767621
H                0.9406126520        0.2025925950        0.8520232239
H                0.4301184350        0.2147579108        1.0083883339
H                0.5698815650        0.7852421042       -0.0083883549
H                1.0083883339        0.4301184350        0.2147579108
H               -0.0083883549        0.5698815650        0.7852421042
H                0.2147579108        1.0083883339        0.4301184350
H                0.7852421042       -0.0083883549        0.5698815650
H                0.7182485843        0.4096436571        0.3938570710
H                0.2817514157        0.5903563129        0.6061429590
H                0.3938570710        0.7182485843        0.4096436571
H                0.6061429590        0.2817514157        0.5903563129
H                0.4096436571        0.3938570710        0.7182485843
H                0.5903563129        0.6061429590        0.2817514157
H                0.7415087048        0.1938267789        0.3574159221
H                0.2584912952        0.8061732061        0.6425840779
H                0.3574159221        0.7415087048        0.1938267789
H                0.6425840779        0.2584912952        0.8061732061
H                0.1938267789        0.3574159221        0.7415087048
H                0.8061732061        0.6425840779        0.2584912952



     Writing config-only to output data dir ./iceII/iceII.save/ :
     XML data file
     NEW-OLD atomic charge density approx. for the potential

     total cpu time spent up to now is       22.2 secs

     per-process dynamical memory:    27.3 Mb

     Self-consistent Calculation

     iteration #  1     ecut=    90.00 Ry     beta= 0.70
     Davidson diagonalization with overlap
     ethr =  1.00E-06,  avg # of iterations =  8.0

     total cpu time spent up to now is       23.9 secs

     total energy              =    -413.87197672 Ry
     estimated scf accuracy    <       0.00538155 Ry

     iteration #  2     ecut=    90.00 Ry     beta= 0.70
     Davidson diagonalization with overlap
     ethr =  5.61E-06,  avg # of iterations =  2.0

     total cpu time spent up to now is       24.7 secs

     total energy              =    -413.87308187 Ry
     estimated scf accuracy    <       0.00063939 Ry

     iteration #  3     ecut=    90.00 Ry     beta= 0.70
     Davidson diagonalization with overlap
     ethr =  6.66E-07,  avg # of iterations =  2.0

     total cpu time spent up to now is       25.5 secs

     total energy              =    -413.87319251 Ry
     estimated scf accuracy    <       0.00003057 Ry

     iteration #  4     ecut=    90.00 Ry     beta= 0.70
     Davidson diagonalization with overlap
     ethr =  3.18E-08,  avg # of iterations =  2.1

     total cpu time spent up to now is       26.2 secs

     total energy              =    -413.87319817 Ry
     estimated scf accuracy    <       0.00000442 Ry

     iteration #  5     ecut=    90.00 Ry     beta= 0.70
     Davidson diagonalization with overlap
     ethr =  4.61E-09,  avg # of iterations =  2.0

     total cpu time spent up to now is       27.0 secs

     total energy              =    -413.87319920 Ry
     estimated scf accuracy    <       0.00000037 Ry

     iteration #  6     ecut=    90.00 Ry     beta= 0.70
     Davidson diagonalization with overlap
     ethr =  3.83E-10,  avg # of iterations =  2.7

     total cpu time spent up to now is       27.8 secs

     End of self-consistent calculation

          k = 0.0000 0.0000 0.0000 ( 24113 PWs)   bands (ev):

   -20.1005 -19.3275 -19.3275 -18.9528 -18.9528 -18.9121 -18.9121 -18.8845
   -18.8814 -18.3491 -18.3491 -17.7882  -7.4537  -7.3224  -7.3224  -7.1299
    -7.1098  -6.9318  -6.9318  -6.4561  -6.4561  -6.3120  -6.3120  -6.1939
    -6.0615  -4.9270  -4.9270  -4.1390  -4.1390  -4.1099  -4.1099  -3.6274
    -3.4735  -2.6382  -2.6382  -1.7858  -1.6105  -1.6105  -1.4068  -1.4052
    -1.3314  -1.3314  -1.2315  -1.2315  -1.0867  -1.0618  -1.0584  -1.0584

          k =-0.1498-0.0865 0.3111 ( 24135 PWs)   bands (ev):

   -19.9817 -19.3917 -19.3161 -19.1931 -19.1479 -19.0323 -18.8038 -18.7260
   -18.6237 -18.3609 -18.2864 -17.8969  -7.4012  -7.3764  -7.3146  -7.1474
    -7.0072  -6.9193  -6.8062  -6.5411  -6.4691  -6.3416  -6.1619  -6.0973
    -5.8652  -5.1351  -4.8906  -4.6345  -4.3175  -3.9239  -3.9068  -3.5035
    -3.4601  -2.6256  -2.5318  -2.0212  -1.7583  -1.6849  -1.5110  -1.4613
    -1.3932  -1.3184  -1.2315  -1.2251  -1.1486  -1.1143  -1.0568  -0.9900

          k = 0.2996 0.1730-0.6221 ( 24144 PWs)   bands (ev):

   -19.6987 -19.6310 -19.3745 -19.3067 -19.1692 -19.1291 -18.7265 -18.6793
   -18.4112 -18.3447 -18.1755 -18.1370  -7.3991  -7.3417  -7.2843  -7.1276
    -6.9975  -6.9680  -6.6738  -6.5457  -6.4471  -6.3869  -5.9865  -5.9824
    -5.5403  -5.4311  -4.9284  -4.9057  -4.3277  -4.2601  -3.7009  -3.5421
    -2.9230  -2.8492  -2.4724  -2.2974  -1.8778  -1.7441  -1.5926  -1.5333
    -1.4228  -1.3199  -1.2912  -1.2574  -1.2111  -1.0976  -1.0154  -0.9486

          k =-0.1498 0.0865 0.6221 ( 24096 PWs)   bands (ev):

   -19.7418 -19.5040 -19.4713 -19.2715 -19.2247 -19.1219 -18.7226 -18.5798
   -18.5057 -18.2948 -18.2575 -18.0877  -7.3968  -7.3537  -7.3027  -7.1068
    -6.9852  -6.9168  -6.7047  -6.6127  -6.5238  -6.1766  -6.0793  -5.9875
    -5.5395  -5.3432  -5.1965  -4.6386  -4.4351  -4.2747  -3.6439  -3.4114
    -3.2301  -2.6466  -2.4924  -2.3264  -1.8754  -1.7860  -1.5748  -1.4414
    -1.4120  -1.3741  -1.3190  -1.2316  -1.2242  -1.1054  -1.0286  -0.9312

          k = 0.2996 0.3460-0.3111 ( 24118 PWs)   bands (ev):

   -19.8238 -19.5509 -19.4166 -19.2955 -19.1673 -19.0705 -18.7251 -18.5690
   -18.4599 -18.3915 -18.2334 -18.0549  -7.4175  -7.3281  -7.2624  -7.1828
    -7.1017  -6.9650  -6.7567  -6.6717  -6.5373  -6.1697  -6.0962  -5.9406
    -5.7523  -5.3379  -5.0368  -4.7276  -4.5834  -3.9363  -3.5857  -3.3497
    -3.0887  -2.7682  -2.5116  -2.2556  -1.7201  -1.6811  -1.5670  -1.5010
    -1.3999  -1.3267  -1.3000  -1.2521  -1.1639  -1.1439  -1.0215  -0.9052

          k = 0.1498 0.2595 0.0000 ( 24127 PWs)   bands (ev):

   -20.0142 -19.4637 -19.3646 -19.1397 -19.0905 -18.9557 -18.8236 -18.7038
   -18.6251 -18.3699 -18.3069 -17.8777  -7.4319  -7.3866  -7.2978  -7.1511
    -7.0545  -6.9538  -6.9307  -6.6163  -6.4741  -6.3344  -6.1666  -6.0646
    -6.0151  -5.0331  -4.8982  -4.6198  -4.5306  -3.7952  -3.5936  -3.5087
    -3.3180  -2.7099  -2.6424  -1.8718  -1.6161  -1.5789  -1.5277  -1.4595
    -1.3995  -1.3636  -1.2333  -1.1924  -1.1271  -1.1211  -1.0020  -0.9789

          k = 0.2996-0.1730-1.2442 ( 24140 PWs)   bands (ev):

   -19.8064 -19.7390 -19.3949 -19.2178 -19.0955 -18.9861 -18.7245 -18.6712
   -18.4567 -18.4346 -18.1178 -18.0888  -7.4317  -7.3841  -7.2283  -7.1693
    -7.1208  -7.0480  -6.8238  -6.7485  -6.4773  -6.3703  -6.0640  -5.9579
    -5.6163  -5.5637  -5.0489  -4.7650  -4.3475  -3.9227  -3.3655  -3.1984
    -3.0947  -2.9847  -2.4373  -2.2175  -1.6472  -1.5532  -1.5172  -1.5022
    -1.4287  -1.3147  -1.2611  -1.2401  -1.1865  -1.1453  -0.9385  -0.9370

          k = 0.0000 0.0000 0.9332 ( 24152 PWs)   bands (ev):

   -19.6415 -19.6415 -19.5469 -19.3861 -19.1075 -19.1075 -18.5847 -18.5847
   -18.3763 -18.2793 -18.2516 -18.2516  -7.3325  -7.3325  -7.3205  -7.1144
    -7.0991  -7.0991  -6.7087  -6.6695  -6.6695  -5.9835  -5.9835  -5.9000
    -5.5547  -5.5547  -5.4144  -4.7797  -4.2654  -4.2654  -3.3353  -3.1302
    -3.1302  -2.6189  -2.6189  -2.5578  -1.6682  -1.6682  -1.5004  -1.4379
    -1.3707  -1.3707  -1.2895  -1.2895  -1.2283  -1.1161  -1.1161  -0.8704

          k = 0.4494 0.2595 0.0000 ( 24129 PWs)   bands (ev):

   -19.8531 -19.5778 -19.5624 -19.2151 -19.0086 -18.9674 -18.7643 -18.7302
   -18.4614 -18.3107 -18.2466 -18.0357  -7.4069  -7.3807  -7.2757  -7.2197
    -7.0618  -7.0079  -6.8425  -6.7215  -6.6019  -6.2182  -6.0719  -6.0166
    -5.7523  -5.2734  -5.2399  -4.7338  -4.3175  -3.9266  -3.3668  -3.3582
    -3.0476  -2.7608  -2.6171  -2.1687  -1.6138  -1.5849  -1.5190  -1.4949
    -1.4265  -1.3560  -1.2562  -1.2300  -1.1664  -1.0880  -1.0324  -0.9010

          k = 0.2996 0.1730 0.3111 ( 24086 PWs)   bands (ev):

   -19.9001 -19.4726 -19.3431 -19.2923 -19.1512 -19.0545 -18.7455 -18.6861
   -18.5588 -18.3451 -18.2417 -17.9666  -7.4345  -7.3466  -7.3092  -7.1639
    -7.0154  -6.9140  -6.7921  -6.6564  -6.4175  -6.3312  -6.2422  -6.0254
    -5.7316  -5.1028  -4.8549  -4.7547  -4.6192  -3.9842  -3.6365  -3.3949
    -3.2897  -2.6675  -2.5454  -2.0452  -1.7685  -1.7113  -1.5856  -1.5617
    -1.4123  -1.3904  -1.2499  -1.2027  -1.1380  -1.0657  -1.0062  -0.9578

          k = 0.4494-0.2595-0.9332 ( 24138 PWs)   bands (ev):

   -19.6903 -19.6732 -19.4535 -19.3259 -19.1366 -19.0072 -18.8093 -18.6472
   -18.4120 -18.3082 -18.2241 -18.0671  -7.4635  -7.3170  -7.2750  -7.1816
    -7.0784  -6.9354  -6.7688  -6.6258  -6.4879  -6.4005  -6.1311  -6.0281
    -5.4014  -5.3712  -5.0243  -4.7981  -4.5093  -4.0451  -3.6397  -3.2985
    -2.9364  -2.7030  -2.6313  -2.1497  -1.7581  -1.7149  -1.6798  -1.5738
    -1.5269  -1.3989  -1.2154  -1.1618  -1.1406  -1.0919  -0.9959  -0.8976

          k = 0.2996-0.3460-0.6221 ( 24122 PWs)   bands (ev):

   -19.6402 -19.5660 -19.4262 -19.3916 -19.1909 -19.1724 -18.6841 -18.6593
   -18.3889 -18.3683 -18.1861 -18.1055  -7.4797  -7.3154  -7.2104  -7.1142
    -7.0715  -6.9452  -6.6768  -6.6550  -6.3774  -6.3487  -6.0731  -6.0585
    -5.3325  -5.2227  -5.0006  -4.9001  -4.5228  -4.4446  -3.4764  -3.3662
    -2.9726  -2.9194  -2.5010  -2.2129  -1.9008  -1.7634  -1.6882  -1.6098
    -1.5024  -1.3766  -1.2450  -1.2124  -1.1898  -1.0565  -1.0144  -0.8809

          k = 0.0000 0.0000-1.8663 ( 24090 PWs)   bands (ev):

   -19.5653 -19.4570 -19.4279 -19.4279 -19.3143 -19.3143 -18.5368 -18.5368
   -18.4769 -18.4769 -18.1710 -18.0704  -7.5503  -7.1678  -7.1417  -7.1417
    -7.1076  -7.1076  -6.6942  -6.6183  -6.2469  -6.2469  -6.2318  -6.2318
    -5.0484  -5.0040  -4.9022  -4.9022  -4.7766  -4.7766  -3.1569  -3.1569
    -3.1065  -3.1065  -2.4879  -2.1540  -1.8821  -1.7726  -1.7726  -1.6927
    -1.6927  -1.3200  -1.2158  -1.1420  -1.1420  -1.0618  -1.0618  -0.8224

          k = 0.2996-0.3460 0.3111 ( 24118 PWs)   bands (ev):

   -19.8226 -19.5647 -19.3780 -19.3224 -19.1656 -19.0744 -18.7152 -18.5499
   -18.5196 -18.3405 -18.2508 -18.0544  -7.4021  -7.3496  -7.2568  -7.1486
    -7.1169  -6.9767  -6.8241  -6.6141  -6.5153  -6.2381  -6.0518  -5.9662
    -5.7057  -5.2916  -5.1482  -4.6895  -4.5110  -4.0209  -3.6878  -3.2150
    -2.9819  -2.7866  -2.6847  -2.1732  -1.7438  -1.6243  -1.5871  -1.4934
    -1.4475  -1.3225  -1.2923  -1.2345  -1.2034  -1.1043  -1.0244  -0.9119

     highest occupied level (ev):    -0.8224

!    total energy              =    -413.87319924 Ry
     estimated scf accuracy    <       0.00000010 Ry

     The total energy is the sum of the following terms:
     one-electron contribution =    -252.65520907 Ry
     hartree contribution      =     165.24731886 Ry
     xc contribution           =    -101.92621329 Ry
     ewald contribution        =    -224.53909574 Ry

     convergence has been achieved in   6 iterations

     Forces acting on atoms (cartesian axes, Ry/au):

     atom    1 type  2   force =    -0.01678435    0.02845496    0.02288539
     atom    2 type  2   force =     0.01678435   -0.02845496   -0.02288539
     atom    3 type  2   force =    -0.01625054   -0.02876315    0.02288539
     atom    4 type  2   force =     0.01625054    0.02876315   -0.02288539
     atom    5 type  2   force =     0.03303489    0.00030819    0.02288539
     atom    6 type  2   force =    -0.03303489   -0.00030819   -0.02288539
     atom    7 type  2   force =    -0.02685988    0.01739791   -0.01941492
     atom    8 type  2   force =     0.02685988   -0.01739791    0.01941492
     atom    9 type  2   force =    -0.00163709   -0.03196030   -0.01941492
     atom   10 type  2   force =     0.00163709    0.03196030    0.01941492
     atom   11 type  2   force =     0.02849697    0.01456239   -0.01941492
     atom   12 type  2   force =    -0.02849697   -0.01456239    0.01941492
     atom   13 type  1   force =    -0.00301239   -0.01189011   -0.03089817
     atom   14 type  1   force =     0.00301239    0.01189011    0.03089817
     atom   15 type  1   force =     0.01180333    0.00333625   -0.03089817
     atom   16 type  1   force =    -0.01180333   -0.00333625    0.03089817
     atom   17 type  1   force =    -0.00879094    0.00855385   -0.03089817
     atom   18 type  1   force =     0.00879094   -0.00855385    0.03089817
     atom   19 type  1   force =     0.02222384   -0.02404278   -0.00406043
     atom   20 type  1   force =    -0.02222384    0.02404278    0.00406043
     atom   21 type  1   force =     0.00970974    0.03126780   -0.00406043
     atom   22 type  1   force =    -0.00970974   -0.03126780    0.00406043
     atom   23 type  1   force =    -0.03193358   -0.00722502   -0.00406043
     atom   24 type  1   force =     0.03193358    0.00722502    0.00406043
     atom   25 type  1   force =    -0.01139428   -0.00217350    0.01475801
     atom   26 type  1   force =     0.01139428    0.00217350   -0.01475801
     atom   27 type  1   force =     0.00757944   -0.00878099    0.01475801
     atom   28 type  1   force =    -0.00757944    0.00878099   -0.01475801
     atom   29 type  1   force =     0.00381484    0.01095448    0.01475801
     atom   30 type  1   force =    -0.00381484   -0.01095448   -0.01475801
     atom   31 type  1   force =    -0.01961917   -0.01309201    0.00961659
     atom   32 type  1   force =     0.01961917    0.01309201   -0.00961659
     atom   33 type  1   force =     0.02114759   -0.01044470    0.00961659
     atom   34 type  1   force =    -0.02114759    0.01044470   -0.00961659
     atom   35 type  1   force =    -0.00152842    0.02353670    0.00961659
     atom   36 type  1   force =     0.00152842   -0.02353670   -0.00961659

     Total force =     0.193043     Total SCF correction =     0.000511


     Computing stress (Cartesian axis) and pressure

          total   stress  (Ry/bohr**3)                   (kbar)     P=       29.84
   0.00016992  -0.00000000  -0.00000000           25.00       -0.00       -0.00
   0.00000000   0.00016992   0.00000000            0.00       25.00        0.00
   0.00000000   0.00000000   0.00026876            0.00        0.00       39.54

     Energy error            =      6.4E-02 Ry
     Gradient error          =      3.3E-02 Ry/Bohr

     number of scf cycles    =   3
     number of bfgs steps    =   2

     energy             old  =    -413.8094772824 Ry
     energy             new  =    -413.8731992387 Ry

     CASE: energy            _new < energy            _old

     new trust radius        =       0.0596199196 bohr
     new conv_thr            =       0.0000001000 Ry


ATOMIC_POSITIONS (crystal)
O                0.2714151141        0.0241518076        0.8553573677
O                0.7285848859        0.9758482034        0.1446426023
O                0.8553573677        0.2714151141        0.0241518076
O                0.1446426023        0.7285848859        0.9758482034
O                0.0241518076        0.8553573677        0.2714151141
O                0.9758482034        0.1446426023        0.7285848859
O                0.4795431325        0.7499236567        0.3324389645
O                0.5204568675        0.2500763433        0.6675610055
O                0.3324389645        0.4795431325        0.7499236567
O                0.6675610055        0.5204568675        0.2500763433
O                0.7499236567        0.3324389645        0.4795431325
O                0.2500763433        0.6675610055        0.5204568675
H                0.1423427082        0.0538282738        0.7927585443
H                0.8576572778        0.9461717182        0.2072414557
H                0.7927585443        0.1423427082        0.0538282738
H                0.2072414557        0.8576572778        0.9461717182
H                0.0538282738        0.7927585443        0.1423427082
H                0.9461717182        0.2072414557        0.8576572778
H                0.4340322360        0.2142176596        1.0090485504
H                0.5659677640        0.7857823554       -0.0090485714
H                1.0090485504        0.4340322360        0.2142176596
H               -0.0090485714        0.5659677640        0.7857823554
H                0.2142176596        1.0090485504        0.4340322360
H                0.7857823554       -0.0090485714        0.5659677640
H                0.7193121064        0.4124124948        0.3960353621
H                0.2806878936        0.5875874752        0.6039646679
H                0.3960353621        0.7193121064        0.4124124948
H                0.6039646679        0.2806878936        0.5875874752
H                0.4124124948        0.3960353621        0.7193121064
H                0.5875874752        0.6039646679        0.2806878936
H                0.7419997375        0.1928902677        0.3596700575
H                0.2580002625        0.8071097173        0.6403299425
H                0.3596700575        0.7419997375        0.1928902677
H                0.6403299425        0.2580002625        0.8071097173
H                0.1928902677        0.3596700575        0.7419997375
H                0.8071097173        0.6403299425        0.2580002625



     Writing config-only to output data dir ./iceII/iceII.save/ :
     XML data file
     NEW-OLD atomic charge density approx. for the potential

     total cpu time spent up to now is       28.7 secs

     per-process dynamical memory:    27.3 Mb

     Self-consistent Calculation

     iteration #  1     ecut=    90.00 Ry     beta= 0.70
     Davidson diagonalization with overlap
     ethr =  1.00E-06,  avg # of iterations =  8.0

     total cpu time spent up to now is       30.4 secs

     total energy              =    -413.90731881 Ry
     estimated scf accuracy    <       0.00351911 Ry

     iteration #  2     ecut=    90.00 Ry     beta= 0.70
     Davidson diagonalization with overlap
     ethr =  3.67E-06,  avg # of iterations =  2.0

     total cpu time spent up to now is       31.2 secs

     total energy              =    -413.90799279 Ry
     estimated scf accuracy    <       0.00041352 Ry

     iteration #  3     ecut=    90.00 Ry     beta= 0.70
     Davidson diagonalization with overlap
     ethr =  4.31E-07,  avg # of iterations =  2.0

     total cpu time spent up to now is       31.9 secs

     total energy              =    -413.90807180 Ry
     estimated scf accuracy    <       0.00002116 Ry

     iteration #  4     ecut=    90.00 Ry     beta= 0.70
     Davidson diagonalization with overlap
     ethr =  2.20E-08,  avg # of iterations =  2.2

     total cpu time spent up to now is       32.6 secs

     total energy              =    -413.90807450 Ry
     estimated scf accuracy    <       0.00000268 Ry

     iteration #  5     ecut=    90.00 Ry     beta= 0.70
     Davidson diagonalization with overlap
     ethr =  2.79E-09,  avg # of iterations =  2.1

     total cpu time spent up to now is       33.4 secs

     total energy              =    -413.90807522 Ry
     estimated scf accuracy    <       0.00000019 Ry

     iteration #  6     ecut=    90.00 Ry     beta= 0.70
     Davidson diagonalization with overlap
     ethr =  1.98E-10,  avg # of iterations =  2.1

     total cpu time spent up to now is       34.2 secs

     End of self-consistent calculation

          k = 0.0000 0.0000 0.0000 ( 24113 PWs)   bands (ev):

   -20.1260 -19.3655 -19.3655 -18.9828 -18.9828 -18.9531 -18.9531 -18.9250
   -18.9162 -18.3898 -18.3898 -17.8505  -7.6024  -7.4237  -7.4237  -7.2727
    -7.1295  -7.1295  -6.9791  -6.6489  -6.6489  -6.5529  -6.5529  -6.3392
    -6.3362  -4.8416  -4.8416  -4.0905  -4.0905  -3.9483  -3.9483  -3.5219
    -3.4727  -2.5774  -2.5774  -1.7398  -1.6262  -1.6262  -1.4503  -1.3880
    -1.3564  -1.3564  -1.2438  -1.2438  -1.1145  -1.0478  -1.0478  -1.0426

          k =-0.1498-0.0865 0.3111 ( 24135 PWs)   bands (ev):

   -20.0090 -19.4267 -19.3604 -19.2180 -19.1750 -19.0666 -18.8469 -18.7668
   -18.6682 -18.4016 -18.3298 -17.9537  -7.5338  -7.4810  -7.4191  -7.2768
    -7.1164  -7.0921  -6.8984  -6.7262  -6.6087  -6.5765  -6.4227  -6.3509
    -5.9914  -5.0650  -4.8370  -4.5259  -4.2703  -3.8598  -3.7461  -3.4405
    -3.3417  -2.5749  -2.4675  -1.9629  -1.7555  -1.6951  -1.5234  -1.4776
    -1.4217  -1.3434  -1.2293  -1.2147  -1.1584  -1.1163  -1.0543  -1.0044

          k = 0.2996 0.1730-0.6221 ( 24144 PWs)   bands (ev):

   -19.7376 -19.6553 -19.4146 -19.3257 -19.2067 -19.1547 -18.7791 -18.7132
   -18.4731 -18.3795 -18.2350 -18.1705  -7.4990  -7.4627  -7.3892  -7.2828
    -7.1539  -7.1173  -6.8078  -6.7111  -6.6154  -6.6032  -6.2657  -6.2480
    -5.5426  -5.3890  -4.8838  -4.8579  -4.2725  -4.1942  -3.5445  -3.3981
    -2.8467  -2.7726  -2.4075  -2.2626  -1.8307  -1.7548  -1.6149  -1.5354
    -1.4391  -1.3239  -1.3068  -1.2741  -1.2134  -1.1100  -1.0076  -0.9669

          k =-0.1498 0.0865 0.6221 ( 24096 PWs)   bands (ev):

   -19.7755 -19.5372 -19.5019 -19.3038 -19.2496 -19.1527 -18.7671 -18.6302
   -18.5495 -18.3426 -18.3038 -18.1313  -7.4961  -7.4575  -7.4167  -7.2832
    -7.1482  -7.0616  -6.8076  -6.7870  -6.7035  -6.4007  -6.3393  -6.2597
    -5.5396  -5.2843  -5.1713  -4.5877  -4.3788  -4.2040  -3.5053  -3.2708
    -3.1248  -2.5818  -2.4537  -2.2651  -1.8450  -1.7838  -1.5991  -1.4488
    -1.4251  -1.3935  -1.3168  -1.2451  -1.2309  -1.1169  -1.0250  -0.9454

          k = 0.2996 0.3460-0.3111 ( 24118 PWs)   bands (ev):

   -19.8532 -19.5844 -19.4581 -19.3194 -19.1926 -19.1026 -18.7712 -18.6248
   -18.4824 -18.4531 -18.2739 -18.1046  -7.5116  -7.4702  -7.3712  -7.2996
    -7.2088  -7.1237  -6.9320  -6.8627  -6.7295  -6.3901  -6.3390  -6.2234
    -5.7339  -5.2727  -4.9316  -4.6850  -4.5428  -3.8757  -3.4161  -3.2696
    -3.0285  -2.7071  -2.4303  -2.1833  -1.7083  -1.6969  -1.5891  -1.5167
    -1.4183  -1.3343  -1.2985  -1.2721  -1.1847  -1.1523  -1.0115  -0.9099

          k = 0.1498 0.2595 0.0000 ( 24127 PWs)   bands (ev):

   -20.0406 -19.4996 -19.4020 -19.1733 -19.1188 -18.9871 -18.8663 -18.7480
   -18.6682 -18.4107 -18.3467 -17.9364  -7.5701  -7.4680  -7.4090  -7.2520
    -7.1417  -7.1298  -7.0949  -6.8027  -6.6678  -6.5296  -6.4007  -6.3022
    -6.1263  -4.9402  -4.8246  -4.5402  -4.4508  -3.7147  -3.4982  -3.3885
    -3.2903  -2.6305  -2.5825  -1.7992  -1.6312  -1.5946  -1.5622  -1.4833
    -1.4163  -1.3654  -1.2497  -1.2025  -1.1700  -1.0995  -0.9987  -0.9689

          k = 0.2996-0.1730-1.2442 ( 24140 PWs)   bands (ev):

   -19.8342 -19.7708 -19.4321 -19.2496 -19.1266 -19.0153 -18.7725 -18.7145
   -18.5044 -18.4697 -18.1712 -18.1346  -7.5409  -7.4742  -7.3516  -7.2650
    -7.2593  -7.1924  -7.0215  -6.9285  -6.7003  -6.5422  -6.3352  -6.2401
    -5.5393  -5.5243  -4.9347  -4.7358  -4.2781  -3.8493  -3.2740  -3.1743
    -2.9830  -2.8920  -2.3801  -2.1213  -1.6652  -1.5784  -1.5394  -1.5113
    -1.4585  -1.3193  -1.2698  -1.2465  -1.2183  -1.1430  -0.9395  -0.9273

          k = 0.0000 0.0000 0.9332 ( 24152 PWs)   bands (ev):

   -19.6712 -19.6712 -19.5951 -19.4000 -19.1389 -19.1389 -18.6312 -18.6312
   -18.4492 -18.2984 -18.2984 -18.2971  -7.4607  -7.4607  -7.4122  -7.2820
    -7.2174  -7.2174  -6.9013  -6.8446  -6.8446  -6.2519  -6.2519  -6.1865
    -5.4662  -5.4662  -5.2922  -4.7662  -4.2194  -4.2194  -3.1667  -3.0557
    -3.0557  -2.5384  -2.5384  -2.4811  -1.6752  -1.6752  -1.5212  -1.4792
    -1.3813  -1.3813  -1.3085  -1.3085  -1.2380  -1.1064  -1.1064  -0.8712

          k = 0.4494 0.2595 0.0000 ( 24129 PWs)   bands (ev):

   -19.8813 -19.6092 -19.5980 -19.2416 -19.0518 -18.9967 -18.8087 -18.7640
   -18.5137 -18.3558 -18.2874 -18.0873  -7.5213  -7.4750  -7.3951  -7.2976
    -7.2136  -7.1655  -7.0231  -6.9005  -6.8032  -6.4330  -6.3206  -6.2932
    -5.7248  -5.1809  -5.1371  -4.7130  -4.2445  -3.8490  -3.3134  -3.2743
    -2.9596  -2.6670  -2.5487  -2.0831  -1.6316  -1.5985  -1.5415  -1.5298
    -1.4356  -1.3657  -1.2737  -1.2559  -1.1691  -1.0911  -1.0313  -0.8917

          k = 0.2996 0.1730 0.3111 ( 24086 PWs)   bands (ev):

   -19.9284 -19.5075 -19.3870 -19.3166 -19.1779 -19.0855 -18.7892 -18.7369
   -18.5901 -18.3984 -18.2827 -18.0195  -7.5262  -7.4717  -7.4138  -7.2591
    -7.1743  -7.0537  -6.9717  -6.7879  -6.6343  -6.5684  -6.4521  -6.2967
    -5.7937  -5.0464  -4.8351  -4.6228  -4.5429  -3.8784  -3.5339  -3.3184
    -3.2144  -2.6101  -2.4853  -1.9680  -1.7652  -1.7200  -1.6016  -1.5575
    -1.4296  -1.4011  -1.2617  -1.2142  -1.1533  -1.0821  -1.0127  -0.9526

          k = 0.4494-0.2595-0.9332 ( 24138 PWs)   bands (ev):

   -19.7205 -19.7063 -19.4895 -19.3506 -19.1687 -19.0419 -18.8489 -18.6895
   -18.4517 -18.3667 -18.2733 -18.1090  -7.5289  -7.4418  -7.3867  -7.2744
    -7.2112  -7.1041  -6.9577  -6.8198  -6.6775  -6.6203  -6.3794  -6.3002
    -5.3977  -5.3095  -4.9208  -4.7937  -4.4116  -3.9141  -3.5733  -3.2363
    -2.8565  -2.6527  -2.5660  -2.0507  -1.7559  -1.7180  -1.6793  -1.5727
    -1.5302  -1.4249  -1.2303  -1.1823  -1.1682  -1.1015  -1.0030  -0.8900

          k = 0.2996-0.3460-0.6221 ( 24122 PWs)   bands (ev):

   -19.6807 -19.5916 -19.4638 -19.4162 -19.2214 -19.1983 -18.7349 -18.7000
   -18.4361 -18.4064 -18.2576 -18.1343  -7.5439  -7.4166  -7.3393  -7.2659
    -7.2221  -7.0642  -6.8680  -6.8240  -6.5745  -6.5639  -6.3410  -6.3260
    -5.3077  -5.2098  -4.9569  -4.8664  -4.4090  -4.3356  -3.3678  -3.2594
    -2.8950  -2.8445  -2.4807  -2.1510  -1.8429  -1.7656  -1.6938  -1.6080
    -1.4890  -1.3895  -1.2666  -1.2297  -1.2101  -1.0768  -1.0317  -0.8758

          k = 0.0000 0.0000-1.8663 ( 24090 PWs)   bands (ev):

   -19.6070 -19.4742 -19.4742 -19.4699 -19.3328 -19.3328 -18.5976 -18.5976
   -18.5022 -18.5022 -18.2489 -18.0982  -7.5875  -7.2867  -7.2867  -7.2574
    -7.2574  -7.1935  -6.9153  -6.8087  -6.4843  -6.4843  -6.4768  -6.4768
    -5.1260  -5.0200  -4.7867  -4.7867  -4.6593  -4.6593  -3.0662  -3.0662
    -3.0332  -3.0332  -2.4911  -2.0833  -1.7829  -1.7717  -1.7717  -1.6895
    -1.6895  -1.3357  -1.2391  -1.1616  -1.1616  -1.0878  -1.0878  -0.8122

          k = 0.2996-0.3460 0.3111 ( 24118 PWs)   bands (ev):

   -19.8517 -19.6002 -19.4203 -19.3434 -19.1918 -19.1075 -18.7571 -18.6127
   -18.5556 -18.3785 -18.2984 -18.1031  -7.5134  -7.4636  -7.3682  -7.2613
    -7.2451  -7.1351  -6.9877  -6.8039  -6.7149  -6.4185  -6.3232  -6.2395
    -5.7214  -5.2295  -5.0310  -4.6356  -4.4723  -3.9622  -3.5448  -3.1162
    -2.9032  -2.7335  -2.6078  -2.1010  -1.7310  -1.6442  -1.6024  -1.5116
    -1.4498  -1.3448  -1.2952  -1.2531  -1.2242  -1.1090  -1.0171  -0.9155

     highest occupied level (ev):    -0.8122

!    total energy              =    -413.90807523 Ry
     estimated scf accuracy    <       0.00000002 Ry

     The total energy is the sum of the following terms:
     one-electron contribution =    -253.29088177 Ry
     hartree contribution      =     165.52875337 Ry
     xc contribution           =    -102.06753072 Ry
     ewald contribution        =    -224.07841611 Ry

     convergence has been achieved in   6 iterations

     Forces acting on atoms (cartesian axes, Ry/au):

     atom    1 type  2   force =    -0.00679697    0.00975089    0.00745094
     atom    2 type  2   force =     0.00679697   -0.00975089   -0.00745094
     atom    3 type  2   force =    -0.00504603   -0.01076179    0.00745094
     atom    4 type  2   force =     0.00504603    0.01076179   -0.00745094
     atom    5 type  2   force =     0.01184300    0.00101090    0.00745094
     atom    6 type  2   force =    -0.01184300   -0.00101090   -0.00745094
     atom    7 type  2   force =    -0.01009494    0.00073442   -0.00808928
     atom    8 type  2   force =     0.01009494   -0.00073442    0.00808928
     atom    9 type  2   force =     0.00441144   -0.00910969   -0.00808928
     atom   10 type  2   force =    -0.00441144    0.00910969    0.00808928
     atom   11 type  2   force =     0.00568350    0.00837527   -0.00808928
     atom   12 type  2   force =    -0.00568350   -0.00837527    0.00808928
     atom   13 type  1   force =    -0.00465181   -0.00601048   -0.01512210
     atom   14 type  1   force =     0.00465181    0.00601048    0.01512210
     atom   15 type  1   force =     0.00753113   -0.00102334   -0.01512210
     atom   16 type  1   force =    -0.00753113    0.00102334    0.01512210
     atom   17 type  1   force =    -0.00287933    0.00703383   -0.01512210
     atom   18 type  1   force =     0.00287933   -0.00703383    0.01512210
     atom   19 type  1   force =     0.01464733   -0.00848604   -0.00103340
     atom   20 type  1   force =    -0.01464733    0.00848604    0.00103340
     atom   21 type  1   force =     0.00002546    0.01692798   -0.00103340
     atom   22 type  1   force =    -0.00002546   -0.01692798    0.00103340
     atom   23 type  1   force =    -0.01467279   -0.00844193   -0.00103340
     atom   24 type  1   force =     0.01467279    0.00844193    0.00103340
     atom   25 type  1   force =    -0.00076406    0.00064691    0.00886684
     atom   26 type  1   force =     0.00076406   -0.00064691   -0.00886684
     atom   27 type  1   force =    -0.00017821   -0.00098515    0.00886684
     atom   28 type  1   force =     0.00017821    0.00098515   -0.00886684
     atom   29 type  1   force =     0.00094227    0.00033824    0.00886684
     atom   30 type  1   force =    -0.00094227   -0.00033824   -0.00886684
     atom   31 type  1   force =    -0.00513163   -0.00948742    0.00045987
     atom   32 type  1   force =     0.00513163    0.00948742   -0.00045987
     atom   33 type  1   force =     0.01078216    0.00029959    0.00045987
     atom   34 type  1   force =    -0.01078216   -0.00029959   -0.00045987
     atom   35 type  1   force =    -0.00565053    0.00918783    0.00045987
     atom   36 type  1   force =     0.00565053   -0.00918783   -0.00045987

     Total force =     0.082520     Total SCF correction =     0.000187


     Computing stress (Cartesian axis) and pressure

          total   stress  (Ry/bohr**3)                   (kbar)     P=       43.06
   0.00026695   0.00000000  -0.00000000           39.27        0.00       -0.00
  -0.00000000   0.00026695   0.00000000           -0.00       39.27        0.00
   0.00000000   0.00000000   0.00034432            0.00        0.00       50.65

     Energy error            =      3.5E-02 Ry
     Gradient error          =      1.7E-02 Ry/Bohr

     number of scf cycles    =   4
     number of bfgs steps    =   3

     energy             old  =    -413.8731992387 Ry
     energy             new  =    -413.9080752344 Ry

     CASE: energy            _new < energy            _old

     new trust radius        =       0.0560359223 bohr
     new conv_thr            =       0.0000001000 Ry


ATOMIC_POSITIONS (crystal)
O                0.2715864827        0.0268726152        0.8571536479
O                0.7284135173        0.9731273958        0.1428463221
O                0.8571536479        0.2715864827        0.0268726152
O                0.1428463221        0.7284135173        0.9731273958
O                0.0268726152        0.8571536479        0.2715864827
O                0.9731273958        0.1428463221        0.7284135173
O                0.4768902760        0.7484892894        0.3316698649
O                0.5231097240        0.2515107106        0.6683301051
O                0.3316698649        0.4768902760        0.7484892894
O                0.6683301051        0.5231097240        0.2515107106
O                0.7484892894        0.3316698649        0.4768902760
O                0.2515107106        0.6683301051        0.5231097240
H                0.1369938931        0.0486479885        0.7887471653
H                0.8630060929        0.9513520035        0.2112528347
H                0.7887471653        0.1369938931        0.0486479885
H                0.2112528347        0.8630060929        0.9513520035
H                0.0486479885        0.7887471653        0.1369938931
H                0.9513520035        0.2112528347        0.8630060929
H                0.4377751682        0.2139490454        1.0092144392
H                0.5622248318        0.7860509696       -0.0092144602
H                1.0092144392        0.4377751682        0.2139490454
H               -0.0092144602        0.5622248318        0.7860509696
H                0.2139490454        1.0092144392        0.4377751682
H                0.7860509696       -0.0092144602        0.5622248318
H                0.7208718506        0.4153137586        0.3979615906
H                0.2791281494        0.5846862114        0.6020384394
H                0.3979615906        0.7208718506        0.4153137586
H                0.6020384394        0.2791281494        0.5846862114
H                0.4153137586        0.3979615906        0.7208718506
H                0.5846862114        0.6020384394        0.2791281494
H                0.7422679599        0.1911556590        0.3609569659
H                0.2577320401        0.8088443260        0.6390430341
H                0.3609569659        0.7422679599        0.1911556590
H                0.6390430341        0.2577320401        0.8088443260
H                0.1911556590        0.3609569659        0.7422679599
H                0.8088443260        0.6390430341        0.2577320401



     Writing config-only to output data dir ./iceII/iceII.save/ :
     XML data file
     NEW-OLD atomic charge density approx. for the potential

     total cpu time spent up to now is       35.1 secs

     per-process dynamical memory:    27.3 Mb

     Self-consistent Calculation

     iteration #  1     ecut=    90.00 Ry     beta= 0.70
     Davidson diagonalization with overlap
     ethr =  1.00E-06,  avg # of iterations =  6.8

     total cpu time spent up to now is       36.6 secs

     total energy              =    -413.91810598 Ry
     estimated scf accuracy    <       0.00157030 Ry

     iteration #  2     ecut=    90.00 Ry     beta= 0.70
     Davidson diagonalization with overlap
     ethr =  1.64E-06,  avg # of iterations =  2.0

     total cpu time spent up to now is       37.3 secs

     total energy              =    -413.91841709 Ry
     estimated scf accuracy    <       0.00015707 Ry

     iteration #  3     ecut=    90.00 Ry     beta= 0.70
     Davidson diagonalization with overlap
     ethr =  1.64E-07,  avg # of iterations =  2.0

     total cpu time spent up to now is       38.0 secs

     total energy              =    -413.91844856 Ry
     estimated scf accuracy    <       0.00001366 Ry

     iteration #  4     ecut=    90.00 Ry     beta= 0.70
     Davidson diagonalization with overlap
     ethr =  1.42E-08,  avg # of iterations =  2.0

     total cpu time spent up to now is       38.8 secs

     total energy              =    -413.91845064 Ry
     estimated scf accuracy    <       0.00000079 Ry

     iteration #  5     ecut=    90.00 Ry     beta= 0.70
     Davidson diagonalization with overlap
     ethr =  8.24E-10,  avg # of iterations =  2.1

     total cpu time spent up to now is       39.5 secs

     End of self-consistent calculation

          k = 0.0000 0.0000 0.0000 ( 24113 PWs)   bands (ev):

   -20.1039 -19.3448 -19.3448 -18.9686 -18.9686 -18.9277 -18.9277 -18.9179
   -18.8878 -18.3758 -18.3758 -17.8418  -7.6546  -7.5027  -7.5027  -7.3876
    -7.2237  -7.2237  -6.9592  -6.7882  -6.7882  -6.7391  -6.7391  -6.5633
    -6.3346  -4.7549  -4.7549  -3.9991  -3.9991  -3.8023  -3.8023  -3.4454
    -3.4107  -2.4973  -2.4973  -1.6827  -1.6109  -1.6109  -1.4618  -1.3729
    -1.3729  -1.3568  -1.2603  -1.2603  -1.1455  -1.0186  -1.0186  -0.9766

          k =-0.1498-0.0865 0.3111 ( 24135 PWs)   bands (ev):

   -19.9870 -19.4026 -19.3376 -19.1997 -19.1603 -19.0491 -18.8287 -18.7452
   -18.6460 -18.3901 -18.3182 -17.9432  -7.5930  -7.5442  -7.4919  -7.3839
    -7.2132  -7.1734  -6.9715  -6.8744  -6.7609  -6.7088  -6.6183  -6.5406
    -5.9909  -4.9813  -4.7647  -4.4110  -4.1796  -3.7910  -3.5979  -3.3548
    -3.2252  -2.5021  -2.3896  -1.8916  -1.7243  -1.6725  -1.5294  -1.4695
    -1.4343  -1.3557  -1.2312  -1.1923  -1.1553  -1.1070  -1.0361  -1.0000

          k = 0.2996 0.1730-0.6221 ( 24144 PWs)   bands (ev):

   -19.7147 -19.6349 -19.3892 -19.3026 -19.1924 -19.1404 -18.7565 -18.6922
   -18.4596 -18.3682 -18.2197 -18.1601  -7.5632  -7.5319  -7.4624  -7.3628
    -7.2454  -7.1982  -6.9370  -6.8667  -6.7607  -6.7499  -6.4647  -6.4399
    -5.4777  -5.3166  -4.8184  -4.7701  -4.1859  -4.1089  -3.4059  -3.2750
    -2.7636  -2.6824  -2.3315  -2.2005  -1.7572  -1.7343  -1.6128  -1.5316
    -1.4343  -1.3174  -1.3121  -1.2609  -1.2076  -1.1150  -1.0013  -0.9797

          k =-0.1498 0.0865 0.6221 ( 24096 PWs)   bands (ev):

   -19.7536 -19.5131 -19.4795 -19.2842 -19.2327 -19.1351 -18.7472 -18.6087
   -18.5336 -18.3318 -18.2922 -18.1187  -7.5498  -7.5295  -7.4909  -7.3774
    -7.2308  -7.1481  -6.9362  -6.9087  -6.8612  -6.5751  -6.5246  -6.4551
    -5.4811  -5.1955  -5.1044  -4.5083  -4.2975  -4.1126  -3.3813  -3.1440
    -3.0205  -2.5042  -2.3934  -2.1852  -1.7877  -1.7507  -1.5991  -1.4487
    -1.4224  -1.3962  -1.2968  -1.2483  -1.2177  -1.1226  -1.0223  -0.9542

          k = 0.2996 0.3460-0.3111 ( 24118 PWs)   bands (ev):

   -19.8309 -19.5625 -19.4356 -19.3046 -19.1703 -19.0807 -18.7567 -18.6058
   -18.4697 -18.4328 -18.2629 -18.0927  -7.5663  -7.5353  -7.4568  -7.3736
    -7.2795  -7.2032  -7.0644  -7.0094  -6.8869  -6.5765  -6.5268  -6.4309
    -5.6477  -5.1744  -4.8282  -4.5993  -4.4727  -3.7966  -3.2826  -3.1742
    -2.9431  -2.6303  -2.3432  -2.0995  -1.6852  -1.6649  -1.5864  -1.5165
    -1.4181  -1.3478  -1.2807  -1.2683  -1.1838  -1.1505  -1.0021  -0.9062

          k = 0.1498 0.2595 0.0000 ( 24127 PWs)   bands (ev):

   -20.0184 -19.4789 -19.3815 -19.1539 -19.0964 -18.9689 -18.8480 -18.7361
   -18.6449 -18.3957 -18.3331 -17.9267  -7.6198  -7.5319  -7.4886  -7.3535
    -7.2288  -7.2218  -7.1672  -6.9427  -6.8340  -6.6921  -6.5907  -6.5169
    -6.0623  -4.8370  -4.7353  -4.4388  -4.3627  -3.6160  -3.3908  -3.2823
    -3.2223  -2.5365  -2.5045  -1.7167  -1.6180  -1.5975  -1.5577  -1.4940
    -1.4247  -1.3541  -1.2598  -1.2007  -1.1969  -1.0584  -0.9834  -0.9433

          k = 0.2996-0.1730-1.2442 ( 24140 PWs)   bands (ev):

   -19.8106 -19.7509 -19.4118 -19.2304 -19.1037 -18.9966 -18.7521 -18.7047
[...]
O                0.5238025612        0.2518830984        0.6716089639
O                0.3283910061        0.4761974388        0.7481169016
O                0.6716089639        0.5238025612        0.2518830984
O                0.7481169016        0.3283910061        0.4761974388
O                0.2518830984        0.6716089639        0.5238025612
H                0.1329369153        0.0414014030        0.7887342294
H                0.8670630707        0.9585985890        0.2112657706
H                0.7887342294        0.1329369153        0.0414014030
H                0.2112657706        0.8670630707        0.9585985890
H                0.0414014030        0.7887342294        0.1329369153
H                0.9585985890        0.2112657706        0.8670630707
H                0.4379816511        0.2114836524        0.9990982184
H                0.5620183489        0.7885163626        0.0009017606
H                0.9990982184        0.4379816511        0.2114836524
H                0.0009017606        0.5620183489        0.7885163626
H                0.2114836524        0.9990982184        0.4379816511
H                0.7885163626        0.0009017606        0.5620183489
H                0.7287964662        0.4182327707        0.4020453018
H                0.2712035338        0.5817671993        0.5979547282
H                0.4020453018        0.7287964662        0.4182327707
H                0.5979547282        0.2712035338        0.5817671993
H                0.4182327707        0.4020453018        0.7287964662
H                0.5817671993        0.5979547282        0.2712035338
H                0.7404701677        0.1879092452        0.3578874233
H                0.2595298323        0.8120907398        0.6421125767
H                0.3578874233        0.7404701677        0.1879092452
H                0.6421125767        0.2595298323        0.8120907398
H                0.1879092452        0.3578874233        0.7404701677
H                0.8120907398        0.6421125767        0.2595298323



     Writing config-only to output data dir ./iceII/iceII.save/ :
     XML data file
     NEW-OLD atomic charge density approx. for the potential

     total cpu time spent up to now is      200.2 secs

     per-process dynamical memory:    27.3 Mb

     Self-consistent Calculation

     iteration #  1     ecut=    90.00 Ry     beta= 0.70
     Davidson diagonalization with overlap
     ethr =  1.00E-06,  avg # of iterations =  2.0

     Threshold (ethr) on eigenvalues was too large:
     Diagonalizing with lowered threshold

     Davidson diagonalization with overlap
     ethr =  2.09E-10,  avg # of iterations =  4.2

     total cpu time spent up to now is      202.0 secs

     total energy              =    -413.92549750 Ry
     estimated scf accuracy    <       0.00000028 Ry

     iteration #  2     ecut=    90.00 Ry     beta= 0.70
     Davidson diagonalization with overlap
     ethr =  2.95E-10,  avg # of iterations =  2.0

     total cpu time spent up to now is      202.7 secs

     total energy              =    -413.92549754 Ry
     estimated scf accuracy    <       0.00000003 Ry

     iteration #  3     ecut=    90.00 Ry     beta= 0.70
     Davidson diagonalization with overlap
     ethr =  2.85E-11,  avg # of iterations =  2.0

     total cpu time spent up to now is      203.4 secs

     total energy              =    -413.92549754 Ry
     estimated scf accuracy    <          4.9E-09 Ry

     iteration #  4     ecut=    90.00 Ry     beta= 0.70
     Davidson diagonalization with overlap
     ethr =  5.09E-12,  avg # of iterations =  2.0

     total cpu time spent up to now is      204.1 secs

     End of self-consistent calculation

          k = 0.0000 0.0000 0.0000 ( 24113 PWs)   bands (ev):

   -20.0804 -19.2972 -19.2972 -18.9746 -18.9746 -18.9016 -18.9004 -18.9004
   -18.8980 -18.3889 -18.3889 -17.8343  -7.5280  -7.4454  -7.4454  -7.3089
    -7.1766  -7.1766  -6.8863  -6.7595  -6.7595  -6.7293  -6.7293  -6.7237
    -6.2948  -4.7983  -4.7983  -3.9470  -3.9470  -3.7771  -3.7771  -3.5476
    -3.3957  -2.4842  -2.4842  -1.6098  -1.6098  -1.6089  -1.4795  -1.4060
    -1.4060  -1.3207  -1.3207  -1.3205  -1.1668  -1.0156  -1.0156  -0.9872

          k =-0.1498-0.0865 0.3111 ( 24135 PWs)   bands (ev):

   -19.9627 -19.3654 -19.2766 -19.2077 -19.1439 -19.0275 -18.8283 -18.7510
   -18.6385 -18.3967 -18.3228 -17.9378  -7.4770  -7.4612  -7.4202  -7.3179
    -7.1639  -7.1248  -6.9350  -6.8885  -6.7862  -6.7025  -6.5876  -6.5568
    -6.0243  -5.0107  -4.7956  -4.4004  -4.1099  -3.8120  -3.5889  -3.3602
    -3.2096  -2.4811  -2.3921  -1.8361  -1.7029  -1.6505  -1.5344  -1.5093
    -1.4541  -1.3811  -1.2710  -1.1997  -1.1917  -1.1162  -1.0441  -1.0300

          k = 0.2996 0.1730-0.6221 ( 24144 PWs)   bands (ev):

   -19.6510 -19.6505 -19.3258 -19.3187 -19.1387 -19.1333 -18.7437 -18.7330
   -18.4253 -18.3890 -18.1907 -18.1814  -7.4820  -7.4372  -7.3680  -7.2797
    -7.1760  -7.1595  -6.9323  -6.8714  -6.8161  -6.7075  -6.4695  -6.4447
    -5.5360  -5.3443  -4.8506  -4.7238  -4.1581  -4.0688  -3.4111  -3.2903
    -2.7293  -2.6575  -2.3613  -2.1285  -1.7377  -1.7130  -1.5975  -1.5667
    -1.4557  -1.3581  -1.3257  -1.2379  -1.2309  -1.1520  -1.0391  -1.0300

          k =-0.1498 0.0865 0.6221 ( 24096 PWs)   bands (ev):

   -19.7228 -19.4885 -19.4551 -19.2506 -19.2214 -19.1090 -18.7556 -18.6124
   -18.5331 -18.3217 -18.2921 -18.1189  -7.4635  -7.4446  -7.3974  -7.2962
    -7.1592  -7.0893  -6.9388  -6.9135  -6.8844  -6.5818  -6.5235  -6.4576
    -5.5373  -5.2192  -5.1123  -4.4920  -4.2740  -4.0695  -3.3975  -3.1481
    -2.9945  -2.4931  -2.3555  -2.1600  -1.7783  -1.7241  -1.5730  -1.4969
    -1.4551  -1.4022  -1.3163  -1.2720  -1.2000  -1.1559  -1.0621  -1.0071

          k = 0.2996 0.3460-0.3111 ( 24118 PWs)   bands (ev):

   -19.8038 -19.5300 -19.3797 -19.3061 -19.1691 -19.0691 -18.7482 -18.5689
   -18.5191 -18.3915 -18.2755 -18.0955  -7.4804  -7.4271  -7.3831  -7.2996
    -7.2108  -7.1672  -7.0526  -6.9558  -6.8911  -6.6145  -6.5589  -6.4692
    -5.6509  -5.1630  -4.8648  -4.5405  -4.4887  -3.7711  -3.3065  -3.1928
    -2.8967  -2.6114  -2.3463  -2.0663  -1.6782  -1.6424  -1.5742  -1.5387
    -1.4474  -1.3543  -1.3283  -1.2587  -1.1968  -1.1648  -1.0403  -0.9467

          k = 0.1498 0.2595 0.0000 ( 24127 PWs)   bands (ev):

   -19.9942 -19.4335 -19.3333 -19.1518 -19.1028 -18.9762 -18.8223 -18.7103
   -18.6312 -18.4034 -18.3521 -17.9229  -7.4965  -7.4516  -7.4315  -7.3005
    -7.1910  -7.1705  -7.0775  -6.9028  -6.8480  -6.6976  -6.6675  -6.5631
    -6.0275  -4.8525  -4.7136  -4.4174  -4.4084  -3.5959  -3.3843  -3.2844
    -3.2141  -2.5250  -2.5007  -1.6903  -1.6046  -1.5880  -1.5631  -1.5130
    -1.4380  -1.3543  -1.3142  -1.2637  -1.1759  -1.0636  -0.9979  -0.9632

          k = 0.2996-0.1730-1.2442 ( 24140 PWs)   bands (ev):

   -19.7920 -19.7083 -19.3608 -19.2327 -19.0966 -19.0142 -18.7051 -18.6948
   -18.4795 -18.4526 -18.1539 -18.1411  -7.4801  -7.4136  -7.3745  -7.2844
    -7.2759  -7.2095  -7.1719  -6.9709  -6.8987  -6.7005  -6.6290  -6.5138
    -5.3887  -5.3867  -4.7494  -4.7367  -4.2562  -3.7579  -3.1706  -3.0797
    -2.8841  -2.7329  -2.3207  -2.0289  -1.6356  -1.5761  -1.5479  -1.5090
    -1.4779  -1.3455  -1.3304  -1.2590  -1.1773  -1.1358  -0.9595  -0.9403

          k = 0.0000 0.0000 0.9332 ( 24152 PWs)   bands (ev):

   -19.6249 -19.6249 -19.4746 -19.4378 -19.1001 -19.1001 -18.6080 -18.6080
   -18.3830 -18.3259 -18.2848 -18.2848  -7.4405  -7.4282  -7.4282  -7.2518
    -7.2438  -7.2438  -7.0302  -6.9717  -6.9717  -6.4895  -6.4895  -6.4514
    -5.3260  -5.3260  -5.2035  -4.6509  -4.1653  -4.1653  -3.0176  -2.9720
    -2.9720  -2.4376  -2.4376  -2.3518  -1.6336  -1.6336  -1.5177  -1.4517
    -1.4290  -1.4290  -1.2905  -1.2905  -1.2899  -1.1287  -1.1287  -0.9098

          k = 0.4494 0.2595 0.0000 ( 24129 PWs)   bands (ev):

   -19.8336 -19.5593 -19.5260 -19.2371 -19.0006 -18.9840 -18.7747 -18.7406
   -18.4534 -18.3461 -18.2952 -18.0808  -7.4522  -7.4332  -7.4013  -7.2744
    -7.2469  -7.2398  -7.1205  -7.0064  -6.9430  -6.6627  -6.6056  -6.5294
    -5.5868  -5.0170  -4.9623  -4.7162  -4.2248  -3.7851  -3.2227  -3.1012
    -2.8298  -2.5793  -2.4800  -1.9866  -1.6118  -1.5881  -1.5474  -1.5391
    -1.4533  -1.3750  -1.3212  -1.2846  -1.1442  -1.1027  -1.0187  -0.9153

          k = 0.2996 0.1730 0.3111 ( 24086 PWs)   bands (ev):

   -19.8806 -19.4391 -19.3102 -19.2956 -19.1748 -19.0486 -18.7735 -18.6768
   -18.6016 -18.3604 -18.2855 -18.0092  -7.4828  -7.4252  -7.3989  -7.2892
    -7.1896  -7.0949  -7.0355  -6.8969  -6.8360  -6.7630  -6.6715  -6.5099
    -5.7618  -4.9585  -4.8261  -4.4932  -4.4176  -3.7544  -3.4177  -3.1969
    -3.1376  -2.5039  -2.4031  -1.8592  -1.7317  -1.6718  -1.5951  -1.5557
    -1.5036  -1.3944  -1.2972  -1.2136  -1.1443  -1.1148  -1.0285  -0.9854

          k = 0.4494-0.2595-0.9332 ( 24138 PWs)   bands (ev):

   -19.6761 -19.6399 -19.4276 -19.3317 -19.1479 -19.0007 -18.8356 -18.6503
   -18.4482 -18.3186 -18.2555 -18.1208  -7.4641  -7.4022  -7.3631  -7.2714
    -7.1955  -7.1369  -7.0789  -6.9568  -6.8780  -6.7992  -6.6450  -6.5423
    -5.3316  -5.1715  -4.8696  -4.7004  -4.3356  -3.8093  -3.4498  -3.0912
    -2.8003  -2.5036  -2.4979  -1.9736  -1.7263  -1.6775  -1.6298  -1.5805
    -1.5694  -1.4219  -1.2728  -1.2373  -1.1472  -1.1077  -1.0103  -0.9418

          k = 0.2996-0.3460-0.6221 ( 24122 PWs)   bands (ev):

   -19.5873 -19.5843 -19.3967 -19.3862 -19.1791 -19.1770 -18.7014 -18.6975
   -18.4110 -18.3975 -18.1971 -18.1627  -7.4773  -7.4038  -7.3310  -7.2478
    -7.2257  -7.0777  -6.9939  -6.9535  -6.8159  -6.7328  -6.5542  -6.5342
    -5.3010  -5.2136  -4.8917  -4.7480  -4.2424  -4.1711  -3.2857  -3.1574
    -2.7725  -2.7434  -2.3657  -2.0732  -1.7762  -1.7030  -1.6656  -1.6349
    -1.4905  -1.4305  -1.2938  -1.2363  -1.1955  -1.0977  -1.0769  -0.9406

          k = 0.0000 0.0000-1.8663 ( 24090 PWs)   bands (ev):

   -19.4994 -19.4819 -19.3721 -19.3721 -19.3595 -19.3595 -18.5338 -18.5338
   -18.5237 -18.5237 -18.1829 -18.1315  -7.4953  -7.2754  -7.2754  -7.2453
    -7.2453  -7.1740  -7.0315  -6.9304  -6.7661  -6.7661  -6.6589  -6.6589
    -5.2726  -4.9300  -4.6515  -4.6515  -4.5088  -4.5088  -2.9577  -2.9577
    -2.9285  -2.9285  -2.3631  -2.0357  -1.7308  -1.7308  -1.7116  -1.7116
    -1.6647  -1.3828  -1.2464  -1.1908  -1.1908  -1.1041  -1.1041  -0.8750

          k = 0.2996-0.3460 0.3111 ( 24118 PWs)   bands (ev):

   -19.8040 -19.5285 -19.3814 -19.3069 -19.1692 -19.0672 -18.7438 -18.5676
   -18.5384 -18.3722 -18.2799 -18.0971  -7.4617  -7.4448  -7.3810  -7.2703
    -7.2235  -7.1926  -7.0743  -6.9312  -6.8874  -6.6079  -6.5542  -6.4877
    -5.6409  -5.1334  -4.9492  -4.4923  -4.4209  -3.8695  -3.4292  -3.0160
    -2.7967  -2.6249  -2.5224  -1.9984  -1.6622  -1.6358  -1.5624  -1.5044
    -1.4896  -1.3887  -1.3332  -1.2663  -1.2039  -1.1277  -1.0448  -0.9503

     highest occupied level (ev):    -0.8750

!    total energy              =    -413.92549754 Ry
     estimated scf accuracy    <          1.9E-10 Ry

     The total energy is the sum of the following terms:
     one-electron contribution =    -253.24396323 Ry
     hartree contribution      =     165.52997834 Ry
     xc contribution           =    -102.05793820 Ry
     ewald contribution        =    -224.15357445 Ry

     convergence has been achieved in   4 iterations

     Forces acting on atoms (cartesian axes, Ry/au):

     atom    1 type  2   force =     0.00002769   -0.00000334    0.00004659
     atom    2 type  2   force =    -0.00002769    0.00000334   -0.00004659
     atom    3 type  2   force =    -0.00001095    0.00002565    0.00004659
     atom    4 type  2   force =     0.00001095   -0.00002565   -0.00004659
     atom    5 type  2   force =    -0.00001674   -0.00002231    0.00004659
     atom    6 type  2   force =     0.00001674    0.00002231   -0.00004659
     atom    7 type  2   force =    -0.00002477   -0.00004174    0.00003014
     atom    8 type  2   force =     0.00002477    0.00004174   -0.00003014
     atom    9 type  2   force =     0.00004853   -0.00000058    0.00003014
     atom   10 type  2   force =    -0.00004853    0.00000058   -0.00003014
     atom   11 type  2   force =    -0.00002377    0.00004232    0.00003014
     atom   12 type  2   force =     0.00002377   -0.00004232   -0.00003014
     atom   13 type  1   force =     0.00004671   -0.00005768    0.00001431
     atom   14 type  1   force =    -0.00004671    0.00005768   -0.00001431
     atom   15 type  1   force =     0.00002659    0.00006929    0.00001431
     atom   16 type  1   force =    -0.00002659   -0.00006929   -0.00001431
     atom   17 type  1   force =    -0.00007331   -0.00001162    0.00001431
     atom   18 type  1   force =     0.00007331    0.00001162   -0.00001431
     atom   19 type  1   force =     0.00000339    0.00003087   -0.00002560
     atom   20 type  1   force =    -0.00000339   -0.00003087    0.00002560
     atom   21 type  1   force =    -0.00002843   -0.00001250   -0.00002560
     atom   22 type  1   force =     0.00002843    0.00001250    0.00002560
     atom   23 type  1   force =     0.00002504   -0.00001837   -0.00002560
     atom   24 type  1   force =    -0.00002504    0.00001837    0.00002560
     atom   25 type  1   force =    -0.00003814   -0.00003382    0.00002590
     atom   26 type  1   force =     0.00003814    0.00003382   -0.00002590
     atom   27 type  1   force =     0.00004836   -0.00001612    0.00002590
     atom   28 type  1   force =    -0.00004836    0.00001612   -0.00002590
     atom   29 type  1   force =    -0.00001022    0.00004994    0.00002590
     atom   30 type  1   force =     0.00001022   -0.00004994   -0.00002590
     atom   31 type  1   force =    -0.00006292    0.00001932   -0.00000381
     atom   32 type  1   force =     0.00006292   -0.00001932    0.00000381
     atom   33 type  1   force =     0.00001473   -0.00006415   -0.00000381
     atom   34 type  1   force =    -0.00001473    0.00006415    0.00000381
     atom   35 type  1   force =     0.00004819    0.00004483   -0.00000381
     atom   36 type  1   force =    -0.00004819   -0.00004483    0.00000381

     Total force =     0.000356     Total SCF correction =     0.000026


     Computing stress (Cartesian axis) and pressure

          total   stress  (Ry/bohr**3)                   (kbar)     P=       40.73
   0.00027830  -0.00000000   0.00000000           40.94       -0.00        0.00
   0.00000000   0.00027830   0.00000000            0.00       40.94        0.00
   0.00000000   0.00000000   0.00027410            0.00        0.00       40.32

     Energy error            =      3.6E-07 Ry
     Gradient error          =      7.3E-05 Ry/Bohr

     bfgs converged in  35 scf cycles and  34 bfgs steps
     (criteria: energy <  1.0E-04 Ry, force <  1.0E-04 Ry/Bohr)

     End of BFGS Geometry Optimization

     Final energy             =    -413.9254975440 Ry

     File ./iceII/iceII.bfgs deleted, as requested
Begin final coordinates

ATOMIC_POSITIONS (crystal)
O                0.2707356013        0.0233510866        0.8569399904
O                0.7292643987        0.9766489244        0.1430599796
O                0.8569399904        0.2707356013        0.0233510866
O                0.1430599796        0.7292643987        0.9766489244
O                0.0233510866        0.8569399904        0.2707356013
O                0.9766489244        0.1430599796        0.7292643987
O                0.4761974388        0.7481169016        0.3283910061
O                0.5238025612        0.2518830984        0.6716089639
O                0.3283910061        0.4761974388        0.7481169016
O                0.6716089639        0.5238025612        0.2518830984
O                0.7481169016        0.3283910061        0.4761974388
O                0.2518830984        0.6716089639        0.5238025612
H                0.1329369153        0.0414014030        0.7887342294
H                0.8670630707        0.9585985890        0.2112657706
H                0.7887342294        0.1329369153        0.0414014030
H                0.2112657706        0.8670630707        0.9585985890
H                0.0414014030        0.7887342294        0.1329369153
H                0.9585985890        0.2112657706        0.8670630707
H                0.4379816511        0.2114836524        0.9990982184
H                0.5620183489        0.7885163626        0.0009017606
H                0.9990982184        0.4379816511        0.2114836524
H                0.0009017606        0.5620183489        0.7885163626
H                0.2114836524        0.9990982184        0.4379816511
H                0.7885163626        0.0009017606        0.5620183489
H                0.7287964662        0.4182327707        0.4020453018
H                0.2712035338        0.5817671993        0.5979547282
H                0.4020453018        0.7287964662        0.4182327707
H                0.5979547282        0.2712035338        0.5817671993
H                0.4182327707        0.4020453018        0.7287964662
H                0.5817671993        0.5979547282        0.2712035338
H                0.7404701677        0.1879092452        0.3578874233
H                0.2595298323        0.8120907398        0.6421125767
H                0.3578874233        0.7404701677        0.1879092452
H                0.6421125767        0.2595298323        0.8120907398
H                0.1879092452        0.3578874233        0.7404701677
H                0.8120907398        0.6421125767        0.2595298323
End final coordinates



     Writing all to output data dir ./iceII/iceII.save/ :
     XML data file, charge density, pseudopotentials, collected wavefunctions

     init_run     :      0.86s CPU      0.90s WALL (       1 calls)
     electrons    :    169.50s CPU    172.55s WALL (      35 calls)
     update_pot   :      0.76s CPU      0.80s WALL (      34 calls)
     forces       :      3.46s CPU      3.49s WALL (      35 calls)
     stress       :     24.58s CPU     24.61s WALL (      35 calls)

     Called by init_run:
     wfcinit      :      0.32s CPU      0.32s WALL (       1 calls)
     potinit      :      0.03s CPU      0.04s WALL (       1 calls)
     hinit0       :      0.38s CPU      0.40s WALL (       1 calls)

     Called by electrons:
     c_bands      :    144.25s CPU    145.75s WALL (     209 calls)
     sum_band     :     20.29s CPU     20.42s WALL (     209 calls)
     v_of_rho     :      3.94s CPU      3.97s WALL (     218 calls)
     newd         :      0.64s CPU      0.65s WALL (     218 calls)
     mix_rho      :      0.33s CPU      0.33s WALL (     209 calls)

     Called by c_bands:
     init_us_2    :      2.15s CPU      2.23s WALL (    1956 calls)
     cegterg      :    140.01s CPU    141.04s WALL (     836 calls)

     Called by *egterg:
     cdiaghg      :     11.34s CPU     11.35s WALL (    2863 calls)
     h_psi        :    108.56s CPU    109.53s WALL (    3107 calls)
     s_psi        :      3.96s CPU      3.98s WALL (    3107 calls)
     g_psi        :      0.27s CPU      0.27s WALL (    2267 calls)

     Called by h_psi:
     h_psi:calbec :      6.72s CPU      6.78s WALL (    3107 calls)
     vloc_psi     :     96.99s CPU     97.88s WALL (    3107 calls)
     add_vuspsi   :      4.20s CPU      4.22s WALL (    3107 calls)

     General routines
     calbec       :      9.64s CPU      9.72s WALL (    4643 calls)
     fft          :      2.38s CPU      2.40s WALL (    2738 calls)
     ffts         :      0.18s CPU      0.18s WALL (     209 calls)
     fftw         :    101.01s CPU    101.84s WALL (  287868 calls)

     Parallel routines

     PWSCF        :   3m21.49s CPU   3m25.55s WALL


   This run was terminated on:  17: 3:16  31Mar2026            

=------------------------------------------------------------------------------=
   JOB DONE.
=------------------------------------------------------------------------------=
