
     Program PWSCF v.7.3.1 starts on 23Mar2026 at 17:49:18 

     This program is part of the open-source Quantum ESPRESSO suite
     for quantum simulation of materials; please cite
         "P. Giannozzi et al., J. Phys.:Condens. Matter 21 395502 (2009);
         "P. Giannozzi et al., J. Phys.:Condens. Matter 29 465901 (2017);
         "P. Giannozzi et al., J. Chem. Phys. 152 154105 (2020);
          URL http://www.quantum-espresso.org", 
     in publications or presentations arising from this work. More details at
     http://www.quantum-espresso.org/quote

     Parallel version (MPI), running on   128 processors

     MPI processes distributed on     1 nodes
     242839 MiB available memory on the printing compute node when the environment starts

     Waiting for input...
     Reading input from standard input

     Current dimensions of program PWSCF are:
     Max number of different atomic species (ntypx) = 10
     Max number of k-points (npk) =  40000
     Max angular momentum in pseudopotentials (lmaxx) =  4

     K-points division:     npool     =       4
     R & G space division:  proc/nbgrp/npool/nimage =      32
     Subspace diagonalization in iterative solution of the eigenvalue problem:
     a serial algorithm will be used


     Parallelization info
     --------------------
     sticks:   dense  smooth     PW     G-vecs:    dense   smooth      PW
     Min         155     155     46                 6031     6031     974
     Max         156     156     47                 6035     6035     977
     Sum        4973    4973   1473               193055   193055   31213

     Using Slab Decomposition



     bravais-lattice index     =            5
     lattice parameter (alat)  =      13.7317  a.u.
     unit-cell volume          =    1672.8936 (a.u.)^3
     number of atoms/cell      =           36
     number of atomic types    =            2
     number of electrons       =        96.00
     number of Kohn-Sham states=           48
     kinetic-energy cutoff     =      90.0000  Ry
     charge density cutoff     =     360.0000  Ry
     scf convergence threshold =      1.0E-07
     mixing beta               =       0.7000
     number of iterations used =            8  plain     mixing
     Exchange-correlation=  SLA  PW   PBE  PBE
                           (   1   4   3   4   0   0   0)

     celldm(1)=  13.731732  celldm(2)=   0.000000  celldm(3)=   0.000000
     celldm(4)=  -0.392337  celldm(5)=   0.000000  celldm(6)=   0.000000

     crystal axes: (cart. coord. in units of alat)
               a(1) = (   0.834367  -0.481722   0.267909 )  
               a(2) = (   0.000000   0.963444   0.267909 )  
               a(3) = (  -0.834367  -0.481722   0.267909 )  

     reciprocal axes: (cart. coord. in units 2 pi/alat)
               b(1) = (  0.599257 -0.345981  1.244203 )  
               b(2) = (  0.000000  0.691962  1.244203 )  
               b(3) = ( -0.599257 -0.345981  1.244203 )  


     PseudoPot. # 1 for H  read from file:
     ./H.pbe-van_ak.UPF
     MD5 check sum: 077eb6d537518a38cb46c6de387227b7
     Pseudo is Ultrasoft, Zval =  1.0
     Generated by new atomic code, or converted to UPF format
     Using radial grid of  615 points,  1 beta functions with: 
                l(1) =   0
     Q(r) pseudized with  8 coefficients,  rinner =    0.800

     PseudoPot. # 2 for O  read from file:
     ./O.pbe-van_ak.UPF
     MD5 check sum: 78c19812648e8988a0fe644b0f25305e
     Pseudo is Ultrasoft, Zval =  6.0
     Generated by new atomic code, or converted to UPF format
     Using radial grid of  737 points,  4 beta functions with: 
                l(1) =   0
                l(2) =   0
                l(3) =   1
                l(4) =   1
     Q(r) pseudized with  8 coefficients,  rinner =    0.800   0.800   0.800


     atomic species   valence    mass     pseudopotential
     H                 1.00     1.00800     H ( 1.00)
     O                 6.00    16.00000     O ( 1.00)

      6 Sym. Ops., with inversion, found



   Cartesian axes

     site n.     atom                  positions (alat units)
         1        O      tau(   1) = (  -0.4910119  -0.5205722   0.3052394  )
         2        O      tau(   2) = (   0.4910119   0.5205722   0.4984877  )
         3        O      tau(   3) = (   0.6963347  -0.1649427   0.3052394  )
         4        O      tau(   4) = (  -0.6963347   0.1649427   0.4984877  )
         5        O      tau(   5) = (  -0.2053228   0.6855149   0.3052394  )
         6        O      tau(   6) = (   0.2053228  -0.6855149   0.4984877  )
         7        O      tau(   7) = (   0.1229870   0.3303028   0.4196306  )
         8        O      tau(   8) = (  -0.1229870  -0.3303028   0.3840965  )
         9        O      tau(   9) = (  -0.3475441  -0.0586415   0.4196306  )
        10        O      tau(  10) = (   0.3475441   0.0586415   0.3840965  )
        11        O      tau(  11) = (   0.2245571  -0.2716613   0.4196306  )
        12        O      tau(  12) = (  -0.2245571   0.2716612   0.3840965  )
        13        H      tau(  13) = (  -0.5446961  -0.4126715   0.2597134  )
        14        H      tau(  14) = (   0.5446961   0.4126715   0.5440137  )
        15        H      tau(  15) = (   0.6297321  -0.2653849   0.2597134  )
        16        H      tau(  16) = (  -0.6297321   0.2653849   0.5440137  )
        17        H      tau(  17) = (  -0.0850360   0.6780564   0.2597134  )
        18        H      tau(  18) = (   0.0850360  -0.6780564   0.5440137  )
        19        H      tau(  19) = (  -0.4726389  -0.4926041   0.4288765  )
        20        H      tau(  20) = (   0.4726389   0.4926042   0.3748506  )
        21        H      tau(  21) = (   0.6629272  -0.1630152   0.4288765  )
        22        H      tau(  22) = (  -0.6629272   0.1630152   0.3748506  )
        23        H      tau(  23) = (  -0.1902883   0.6556194   0.4288765  )
        24        H      tau(  24) = (   0.1902883  -0.6556194   0.3748506  )
        25        H      tau(  25) = (   0.2676988  -0.1507235   0.4151121  )
        26        H      tau(  26) = (  -0.2676988   0.1507234   0.3886151  )
        27        H      tau(  27) = (  -0.0033191   0.3071957   0.4151121  )
        28        H      tau(  28) = (   0.0033191  -0.3071957   0.3886151  )
        29        H      tau(  29) = (  -0.2643797  -0.1564722   0.4151121  )
        30        H      tau(  30) = (   0.2643797   0.1564723   0.3886151  )
        31        H      tau(  31) = (   0.3102941  -0.3416444   0.3555952  )
        32        H      tau(  32) = (  -0.3102941   0.3416444   0.4481319  )
        33        H      tau(  33) = (   0.1407257   0.4395448   0.3555952  )
        34        H      tau(  34) = (  -0.1407257  -0.4395448   0.4481319  )
        35        H      tau(  35) = (  -0.4510198  -0.0979003   0.3555952  )
        36        H      tau(  36) = (   0.4510198   0.0979003   0.4481319  )

     number of k points=    14
                       cart. coord. in units 2pi/alat
        k(    1) = (   0.0000000   0.0000000   0.0000000), wk =   0.0312500
        k(    2) = (  -0.1498141  -0.0864952   0.3110508), wk =   0.1875000
        k(    3) = (   0.2996283   0.1729905  -0.6221017), wk =   0.0937500
        k(    4) = (  -0.1498141   0.0864952   0.6221017), wk =   0.1875000
        k(    5) = (   0.2996283   0.3459809  -0.3110508), wk =   0.1875000
        k(    6) = (   0.1498141   0.2594857   0.0000000), wk =   0.1875000
        k(    7) = (   0.2996283  -0.1729905  -1.2442034), wk =   0.0937500
        k(    8) = (   0.0000000   0.0000000   0.9331525), wk =   0.0625000
        k(    9) = (   0.4494424   0.2594857   0.0000000), wk =   0.1875000
        k(   10) = (   0.2996283   0.1729905   0.3110508), wk =   0.1875000
        k(   11) = (   0.4494424  -0.2594857  -0.9331525), wk =   0.1875000
        k(   12) = (   0.2996283  -0.3459809  -0.6221017), wk =   0.1875000
        k(   13) = (   0.0000000   0.0000000  -1.8663050), wk =   0.0312500
        k(   14) = (   0.2996283  -0.3459809   0.3110508), wk =   0.1875000

     Dense  grid:   193055 G-vectors     FFT dimensions: (  90,  90,  90)

     Estimated max dynamical RAM per process >      13.19 MB

     Estimated total dynamical RAM >       1.51 GB

     Initial potential from superposition of free atoms

     starting charge      95.9998, renormalised to      96.0000
     Starting wfcs are   72 randomized atomic wfcs

     total cpu time spent up to now is        1.1 secs

     per-process dynamical memory:    18.0 Mb

     Self-consistent Calculation

     iteration #  1     ecut=    90.00 Ry     beta= 0.70
     Davidson diagonalization with overlap
     ethr =  1.00E-02,  avg # of iterations =  2.0

     total cpu time spent up to now is        1.9 secs

     total energy              =    -412.04394962 Ry
     estimated scf accuracy    <       4.33797949 Ry

     iteration #  2     ecut=    90.00 Ry     beta= 0.70
     Davidson diagonalization with overlap
     ethr =  4.52E-03,  avg # of iterations =  3.0

     total cpu time spent up to now is        2.8 secs

     total energy              =    -413.45520036 Ry
     estimated scf accuracy    <       1.78348178 Ry

     iteration #  3     ecut=    90.00 Ry     beta= 0.70
     Davidson diagonalization with overlap
     ethr =  1.86E-03,  avg # of iterations =  2.0

     total cpu time spent up to now is        3.5 secs

     total energy              =    -413.66295424 Ry
     estimated scf accuracy    <       0.07269029 Ry

     iteration #  4     ecut=    90.00 Ry     beta= 0.70
     Davidson diagonalization with overlap
     ethr =  7.57E-05,  avg # of iterations =  4.0

     total cpu time spent up to now is        4.6 secs

     total energy              =    -413.71013764 Ry
     estimated scf accuracy    <       0.09056390 Ry

     iteration #  5     ecut=    90.00 Ry     beta= 0.70
     Davidson diagonalization with overlap
     ethr =  7.57E-05,  avg # of iterations =  2.0

     total cpu time spent up to now is        5.3 secs

     total energy              =    -413.71465617 Ry
     estimated scf accuracy    <       0.01047699 Ry

     iteration #  6     ecut=    90.00 Ry     beta= 0.70
     Davidson diagonalization with overlap
     ethr =  1.09E-05,  avg # of iterations =  3.0

     total cpu time spent up to now is        6.2 secs

     total energy              =    -413.71831649 Ry
     estimated scf accuracy    <       0.00001691 Ry

     iteration #  7     ecut=    90.00 Ry     beta= 0.70
     Davidson diagonalization with overlap
     ethr =  1.76E-08,  avg # of iterations =  6.1

     total cpu time spent up to now is        7.6 secs

     total energy              =    -413.71842151 Ry
     estimated scf accuracy    <       0.00013971 Ry

     iteration #  8     ecut=    90.00 Ry     beta= 0.70
     Davidson diagonalization with overlap
     ethr =  1.76E-08,  avg # of iterations =  3.0

     total cpu time spent up to now is        8.5 secs

     total energy              =    -413.71842115 Ry
     estimated scf accuracy    <       0.00002511 Ry

     iteration #  9     ecut=    90.00 Ry     beta= 0.70
     Davidson diagonalization with overlap
     ethr =  1.76E-08,  avg # of iterations =  2.0

     total cpu time spent up to now is        9.3 secs

     total energy              =    -413.71842382 Ry
     estimated scf accuracy    <       0.00000189 Ry

     iteration # 10     ecut=    90.00 Ry     beta= 0.70
     Davidson diagonalization with overlap
     ethr =  1.96E-09,  avg # of iterations =  4.0

     total cpu time spent up to now is       10.2 secs

     total energy              =    -413.71842474 Ry
     estimated scf accuracy    <       0.00000021 Ry

     iteration # 11     ecut=    90.00 Ry     beta= 0.70
     Davidson diagonalization with overlap
     ethr =  2.20E-10,  avg # of iterations =  2.0

     total cpu time spent up to now is       10.9 secs

     End of self-consistent calculation

          k = 0.0000 0.0000 0.0000 ( 24113 PWs)   bands (ev):

   -20.8063 -20.1262 -20.1262 -19.8347 -19.8347 -19.8026 -19.7563 -19.7563
   -19.7188 -19.3091 -19.3091 -18.8454  -8.1058  -7.9606  -7.9606  -7.9518
    -7.8047  -7.8047  -7.4481  -7.4325  -7.4325  -7.4316  -7.4316  -7.3680
    -6.2596  -4.8813  -4.8813  -4.1870  -4.1870  -3.8989  -3.8989  -3.7901
    -3.5824  -2.7906  -2.7906  -2.0034  -1.8514  -1.8514  -1.7269  -1.5972
    -1.5972  -1.5311  -1.4464  -1.4464  -1.4213  -1.2451  -1.2381  -1.2381

          k =-0.1498-0.0865 0.3111 ( 24135 PWs)   bands (ev):

   -20.7018 -20.1750 -20.1051 -20.0406 -19.9867 -19.8843 -19.6945 -19.6165
   -19.5229 -19.3241 -19.2615 -18.9297  -8.0577  -7.9976  -7.9569  -7.9239
    -7.8016  -7.7560  -7.5476  -7.4934  -7.4487  -7.3761  -7.3218  -7.2777
    -6.0156  -5.0794  -4.9036  -4.5375  -4.3047  -4.0029  -3.7040  -3.5844
    -3.3853  -2.7953  -2.7125  -2.1508  -1.9642  -1.8916  -1.7579  -1.7045
    -1.6653  -1.5822  -1.4615  -1.4225  -1.3634  -1.3228  -1.2503  -1.2327

          k = 0.2996 0.1730-0.6221 ( 24144 PWs)   bands (ev):

   -20.4383 -20.4145 -20.1403 -20.1223 -20.0041 -19.9756 -19.6215 -19.5771
   -19.3817 -19.3049 -19.1686 -19.1105  -8.0184  -7.9962  -7.9458  -7.9155
    -7.8135  -7.7336  -7.5597  -7.5156  -7.4570  -7.3898  -7.2224  -7.1996
    -5.5690  -5.3924  -4.9250  -4.8879  -4.2946  -4.2273  -3.5353  -3.4634
    -2.9434  -2.9291  -2.6960  -2.4101  -2.0394  -1.9295  -1.7924  -1.7908
    -1.7011  -1.5555  -1.5403  -1.4558  -1.4212  -1.3211  -1.2184  -1.2147

          k =-0.1498 0.0865 0.6221 ( 24096 PWs)   bands (ev):

   -20.4918 -20.2753 -20.2545 -20.0782 -20.0580 -19.9560 -19.6232 -19.4979
   -19.4412 -19.2712 -19.2375 -19.0746  -8.0083  -7.9898  -7.9641  -7.9325
    -7.7958  -7.7127  -7.5566  -7.5235  -7.5197  -7.2989  -7.2545  -7.2117
    -5.5972  -5.2501  -5.1844  -4.6433  -4.4360  -4.2167  -3.5590  -3.2880
    -3.1804  -2.7957  -2.6811  -2.4481  -2.0402  -1.9565  -1.7983  -1.7348
    -1.6626  -1.6185  -1.5398  -1.4432  -1.4147  -1.3309  -1.2427  -1.1887

          k = 0.2996 0.3460-0.3111 ( 24118 PWs)   bands (ev):

   -20.5593 -20.3189 -20.2047 -20.1260 -19.9926 -19.9004 -19.6435 -19.4955
   -19.3903 -19.3437 -19.2087 -19.0573  -8.0226  -8.0107  -7.9328  -7.8974
    -7.8115  -7.7506  -7.6497  -7.6073  -7.5262  -7.3108  -7.2843  -7.2136
    -5.6596  -5.2371  -4.9699  -4.6704  -4.6544  -3.9734  -3.4916  -3.3520
    -3.1844  -2.8695  -2.6676  -2.3492  -1.9407  -1.8898  -1.8090  -1.7164
    -1.6616  -1.5575  -1.5239  -1.4809  -1.3856  -1.3728  -1.2143  -1.1439

          k = 0.1498 0.2595 0.0000 ( 24127 PWs)   bands (ev):

   -20.7288 -20.2433 -20.1586 -19.9922 -19.9211 -19.8221 -19.7101 -19.6190
   -19.5174 -19.3229 -19.2707 -18.9176  -8.0728  -7.9897  -7.9583  -7.9088
    -7.8068  -7.7876  -7.6364  -7.5560  -7.4799  -7.3702  -7.3498  -7.2939
    -6.0225  -4.9543  -4.8508  -4.5626  -4.5282  -3.8175  -3.6389  -3.4986
    -3.4198  -2.8295  -2.7856  -2.0664  -1.8506  -1.8200  -1.7904  -1.6794
    -1.6159  -1.5681  -1.4859  -1.4612  -1.3878  -1.3009  -1.1995  -1.1765

          k = 0.2996-0.1730-1.2442 ( 24140 PWs)   bands (ev):

   -20.5400 -20.4886 -20.1839 -20.0614 -19.9172 -19.8572 -19.6087 -19.6082
   -19.3789 -19.3736 -19.1253 -19.0788  -8.0348  -7.9917  -7.9299  -7.8921
    -7.8012  -7.7891  -7.7535  -7.6335  -7.5143  -7.3639  -7.3265  -7.2511
    -5.4751  -5.4389  -4.8997  -4.8203  -4.4237  -3.9694  -3.4355  -3.3633
    -3.1339  -2.9983  -2.5854  -2.3217  -1.8611  -1.8165  -1.7665  -1.7303
    -1.6445  -1.5577  -1.5409  -1.4527  -1.4138  -1.3406  -1.1470  -1.1453

          k = 0.0000 0.0000 0.9332 ( 24152 PWs)   bands (ev):

   -20.3942 -20.3942 -20.3084 -20.2319 -19.9302 -19.9302 -19.5271 -19.5271
   -19.3238 -19.2310 -19.2310 -19.2119  -8.0045  -8.0045  -7.9544  -7.8849
    -7.8037  -7.8037  -7.6846  -7.5931  -7.5931  -7.2376  -7.2376  -7.1915
    -5.3375  -5.3375  -5.2677  -4.8297  -4.3440  -4.3440  -3.2193  -3.2193
    -3.1271  -2.7540  -2.7540  -2.6202  -1.8871  -1.8871  -1.7531  -1.7171
    -1.6253  -1.6253  -1.5075  -1.4711  -1.4711  -1.3045  -1.3045  -1.1064

          k = 0.4494 0.2595 0.0000 ( 24129 PWs)   bands (ev):

   -20.5845 -20.3394 -20.3327 -20.0648 -19.8479 -19.8219 -19.6734 -19.6323
   -19.3846 -19.2789 -19.2177 -19.0438  -8.0254  -7.9871  -7.9596  -7.8580
    -7.8352  -7.7824  -7.7388  -7.6167  -7.5619  -7.3395  -7.2988  -7.2758
    -5.6320  -5.1140  -5.0475  -4.8743  -4.3769  -3.9754  -3.5119  -3.3896
    -3.0649  -2.8505  -2.7395  -2.2881  -1.8369  -1.8181  -1.7916  -1.7245
    -1.6535  -1.5784  -1.5295  -1.4843  -1.3634  -1.3063  -1.2225  -1.1101

          k = 0.2996 0.1730 0.3111 ( 24086 PWs)   bands (ev):

   -20.6287 -20.2450 -20.1357 -20.1137 -19.9972 -19.9011 -19.6464 -19.5805
   -19.4765 -19.3095 -19.2210 -18.9853  -8.0333  -7.9966  -7.9570  -7.8774
    -7.8149  -7.7253  -7.6448  -7.4930  -7.4594  -7.4298  -7.3590  -7.2527
    -5.8069  -5.0564  -4.9858  -4.6075  -4.5332  -3.9686  -3.5997  -3.4045
    -3.3569  -2.7992  -2.6955  -2.1868  -1.9841  -1.8787  -1.8179  -1.7728
    -1.6861  -1.5768  -1.4928  -1.4511  -1.3643  -1.3173  -1.2263  -1.1648

          k = 0.4494-0.2595-0.9332 ( 24138 PWs)   bands (ev):

   -20.4392 -20.4280 -20.2311 -20.1483 -19.9776 -19.8614 -19.6950 -19.5477
   -19.3633 -19.2759 -19.2094 -19.0617  -8.0071  -7.9786  -7.9485  -7.8498
    -7.8072  -7.7474  -7.6655  -7.5842  -7.4914  -7.4339  -7.3353  -7.2707
    -5.4449  -5.2442  -5.0328  -4.8136  -4.4866  -3.9760  -3.6781  -3.3416
    -3.0280  -2.7954  -2.7330  -2.2933  -1.9744  -1.9003  -1.8492  -1.7799
    -1.7445  -1.6211  -1.4826  -1.4378  -1.3672  -1.3260  -1.2214  -1.1078

          k = 0.2996-0.3460-0.6221 ( 24122 PWs)   bands (ev):

   -20.3826 -20.3585 -20.1986 -20.1960 -20.0168 -20.0065 -19.5894 -19.5682
   -19.3459 -19.3218 -19.1878 -19.0854  -8.0128  -7.9614  -7.9237  -7.8880
    -7.8466  -7.6715  -7.6090  -7.5537  -7.4530  -7.4030  -7.2774  -7.2635
    -5.3836  -5.3329  -4.9807  -4.9075  -4.3624  -4.3027  -3.4684  -3.3622
    -2.9975  -2.9735  -2.6459  -2.3840  -2.0536  -1.9287  -1.8664  -1.8427
    -1.7054  -1.6334  -1.4795  -1.4396  -1.4221  -1.3054  -1.2768  -1.1066

          k = 0.0000 0.0000-1.8663 ( 24090 PWs)   bands (ev):

   -20.3022 -20.2838 -20.2012 -20.2012 -20.1377 -20.1377 -19.4663 -19.4663
   -19.4095 -19.4095 -19.1834 -19.0564  -8.0108  -7.8955  -7.8955  -7.8696
    -7.8696  -7.6674  -7.6548  -7.5555  -7.4136  -7.4136  -7.3532  -7.3532
    -5.3718  -5.1838  -4.7613  -4.7613  -4.6229  -4.6229  -3.1958  -3.1958
    -3.1216  -3.1216  -2.6210  -2.3619  -1.9740  -1.9228  -1.9228  -1.9054
    -1.9054  -1.5853  -1.4379  -1.3707  -1.3707  -1.3477  -1.3477  -1.0445

          k = 0.2996-0.3460 0.3111 ( 24118 PWs)   bands (ev):

   -20.5590 -20.3239 -20.1853 -20.1433 -19.9896 -19.9018 -19.6380 -19.4804
   -19.4460 -19.2858 -19.2310 -19.0566  -8.0299  -7.9944  -7.9435  -7.8620
    -7.8439  -7.7596  -7.6695  -7.5821  -7.5239  -7.3065  -7.2792  -7.2234
    -5.6659  -5.1970  -5.0497  -4.6433  -4.5786  -4.0568  -3.5988  -3.2024
    -3.0801  -2.9128  -2.7912  -2.3031  -1.9557  -1.8493  -1.8062  -1.7214
    -1.6719  -1.5704  -1.5173  -1.4895  -1.4263  -1.3207  -1.2216  -1.1452

     highest occupied level (ev):    -1.0445

!    total energy              =    -413.71842476 Ry
     estimated scf accuracy    <       0.00000002 Ry

     The total energy is the sum of the following terms:
     one-electron contribution =    -264.95854705 Ry
     hartree contribution      =     170.62381344 Ry
     xc contribution           =    -103.45081671 Ry
     ewald contribution        =    -215.93287445 Ry

     convergence has been achieved in  11 iterations

     Forces acting on atoms (cartesian axes, Ry/au):

     atom    1 type  2   force =     0.03761595   -0.12796008   -0.07764564
     atom    2 type  2   force =    -0.03761595    0.12796008    0.07764564
     atom    3 type  2   force =     0.09200870    0.09655641   -0.07764564
     atom    4 type  2   force =    -0.09200870   -0.09655641    0.07764564
     atom    5 type  2   force =    -0.12962465    0.03140367   -0.07764564
     atom    6 type  2   force =     0.12962465   -0.03140367    0.07764564
     atom    7 type  2   force =     0.10201027   -0.07892401    0.06284643
     atom    8 type  2   force =    -0.10201027    0.07892401   -0.06284643
     atom    9 type  2   force =     0.01734506    0.12780549    0.06284643
     atom   10 type  2   force =    -0.01734506   -0.12780549   -0.06284643
     atom   11 type  2   force =    -0.11935533   -0.04888148    0.06284643
     atom   12 type  2   force =     0.11935533    0.04888148   -0.06284643
     atom   13 type  1   force =    -0.05282540    0.10339080   -0.05180472
     atom   14 type  1   force =     0.05282540   -0.10339080    0.05180472
     atom   15 type  1   force =    -0.06312636   -0.09744353   -0.05180472
     atom   16 type  1   force =     0.06312636    0.09744353    0.05180472
     atom   17 type  1   force =     0.11595176   -0.00594726   -0.05180472
     atom   18 type  1   force =    -0.11595176    0.00594726    0.05180472
     atom   19 type  1   force =     0.02396214    0.02238076    0.12918848
     atom   20 type  1   force =    -0.02396214   -0.02238076   -0.12918848
     atom   21 type  1   force =    -0.03136338    0.00956144    0.12918848
     atom   22 type  1   force =     0.03136338   -0.00956144   -0.12918848
     atom   23 type  1   force =     0.00740124   -0.03194220    0.12918848
     atom   24 type  1   force =    -0.00740124    0.03194220   -0.12918848
     atom   25 type  1   force =     0.03853580    0.12453217   -0.00059380
     atom   26 type  1   force =    -0.03853580   -0.12453217    0.00059380
     atom   27 type  1   force =    -0.12711592   -0.02889310   -0.00059380
     atom   28 type  1   force =     0.12711592    0.02889310    0.00059380
     atom   29 type  1   force =     0.08858012   -0.09563907   -0.00059380
     atom   30 type  1   force =    -0.08858012    0.09563907    0.00059380
     atom   31 type  1   force =     0.08683636   -0.07972516   -0.06684766
     atom   32 type  1   force =    -0.08683636    0.07972516    0.06684766
     atom   33 type  1   force =     0.02562584    0.11506507   -0.06684766
     atom   34 type  1   force =    -0.02562584   -0.11506507    0.06684766
     atom   35 type  1   force =    -0.11246219   -0.03533991   -0.06684766
     atom   36 type  1   force =     0.11246219    0.03533991    0.06684766

     Total force =     0.825917     Total SCF correction =     0.000084


     Computing stress (Cartesian axis) and pressure

          total   stress  (Ry/bohr**3)                   (kbar)     P=      226.23
   0.00155382  -0.00000000  -0.00000000          228.57       -0.00       -0.00
   0.00000000   0.00155382   0.00000000            0.00      228.57        0.00
  -0.00000000   0.00000000   0.00150607           -0.00        0.00      221.55


     Writing all to output data dir ./iceII/iceII.save/ :
     XML data file, charge density, pseudopotentials, collected wavefunctions

     init_run     :      0.85s CPU      0.91s WALL (       1 calls)
     electrons    :      9.69s CPU      9.82s WALL (       1 calls)
     forces       :      0.11s CPU      0.12s WALL (       1 calls)
     stress       :      0.70s CPU      0.72s WALL (       1 calls)

     Called by init_run:
     wfcinit      :      0.31s CPU      0.33s WALL (       1 calls)
     potinit      :      0.04s CPU      0.05s WALL (       1 calls)
     hinit0       :      0.39s CPU      0.40s WALL (       1 calls)

     Called by electrons:
     c_bands      :      8.31s CPU      8.38s WALL (      11 calls)
     sum_band     :      1.07s CPU      1.08s WALL (      11 calls)
     v_of_rho     :      0.23s CPU      0.24s WALL (      12 calls)
     newd         :      0.04s CPU      0.04s WALL (      12 calls)
     mix_rho      :      0.03s CPU      0.03s WALL (      11 calls)

     Called by c_bands:
     init_us_2    :      0.10s CPU      0.11s WALL (     100 calls)
     cegterg      :      8.12s CPU      8.16s WALL (      44 calls)

     Called by *egterg:
     cdiaghg      :      0.69s CPU      0.69s WALL (     177 calls)
     h_psi        :      6.49s CPU      6.54s WALL (     181 calls)
     s_psi        :      0.23s CPU      0.23s WALL (     181 calls)
     g_psi        :      0.02s CPU      0.02s WALL (     133 calls)

     Called by h_psi:
     h_psi:calbec :      0.41s CPU      0.41s WALL (     181 calls)
     vloc_psi     :      5.81s CPU      5.85s WALL (     181 calls)
     add_vuspsi   :      0.25s CPU      0.25s WALL (     181 calls)

     General routines
     calbec       :      0.54s CPU      0.55s WALL (     245 calls)
     fft          :      0.48s CPU      0.49s WALL (     140 calls)
     ffts         :      0.01s CPU      0.01s WALL (      11 calls)
     fftw         :      5.99s CPU      6.04s WALL (   16694 calls)

     Parallel routines

     PWSCF        :     11.65s CPU     12.15s WALL


   This run was terminated on:  17:49:30  23Mar2026            

=------------------------------------------------------------------------------=
   JOB DONE.
=------------------------------------------------------------------------------=
