
     Program PWSCF v.7.3.1 starts on 21Mar2026 at 18: 4:33 

     This program is part of the open-source Quantum ESPRESSO suite
     for quantum simulation of materials; please cite
         "P. Giannozzi et al., J. Phys.:Condens. Matter 21 395502 (2009);
         "P. Giannozzi et al., J. Phys.:Condens. Matter 29 465901 (2017);
         "P. Giannozzi et al., J. Chem. Phys. 152 154105 (2020);
          URL http://www.quantum-espresso.org", 
     in publications or presentations arising from this work. More details at
     http://www.quantum-espresso.org/quote

     Parallel version (MPI), running on   128 processors

     MPI processes distributed on     1 nodes
     243117 MiB available memory on the printing compute node when the environment starts

     Waiting for input...
     Reading input from standard input

     Current dimensions of program PWSCF are:
     Max number of different atomic species (ntypx) = 10
     Max number of k-points (npk) =  40000
     Max angular momentum in pseudopotentials (lmaxx) =  4

     K-points division:     npool     =       4
     R & G space division:  proc/nbgrp/npool/nimage =      32
     Subspace diagonalization in iterative solution of the eigenvalue problem:
     a serial algorithm will be used


     Parallelization info
     --------------------
     sticks:   dense  smooth     PW     G-vecs:    dense   smooth      PW
     Min         157     157     46                 6142     6142     993
     Max         158     158     47                 6144     6144     996
     Sum        5027    5027   1489               196571   196571   31807

     Using Slab Decomposition



     bravais-lattice index     =            5
     lattice parameter (alat)  =      13.8199  a.u.
     unit-cell volume          =    1705.3411 (a.u.)^3
     number of atoms/cell      =           36
     number of atomic types    =            2
     number of electrons       =        96.00
     number of Kohn-Sham states=           48
     kinetic-energy cutoff     =      90.0000  Ry
     charge density cutoff     =     360.0000  Ry
     scf convergence threshold =      1.0E-07
     mixing beta               =       0.7000
     number of iterations used =            8  plain     mixing
     Exchange-correlation=  SLA  PW   PBE  PBE
                           (   1   4   3   4   0   0   0)

     celldm(1)=  13.819944  celldm(2)=   0.000000  celldm(3)=   0.000000
     celldm(4)=  -0.392337  celldm(5)=   0.000000  celldm(6)=   0.000000

     crystal axes: (cart. coord. in units of alat)
               a(1) = (   0.834367  -0.481722   0.267909 )  
               a(2) = (   0.000000   0.963444   0.267909 )  
               a(3) = (  -0.834367  -0.481722   0.267909 )  

     reciprocal axes: (cart. coord. in units 2 pi/alat)
               b(1) = (  0.599257 -0.345981  1.244203 )  
               b(2) = (  0.000000  0.691962  1.244203 )  
               b(3) = ( -0.599257 -0.345981  1.244203 )  


     PseudoPot. # 1 for H  read from file:
     ./H.pbe-van_ak.UPF
     MD5 check sum: 077eb6d537518a38cb46c6de387227b7
     Pseudo is Ultrasoft, Zval =  1.0
     Generated by new atomic code, or converted to UPF format
     Using radial grid of  615 points,  1 beta functions with: 
                l(1) =   0
     Q(r) pseudized with  8 coefficients,  rinner =    0.800

     PseudoPot. # 2 for O  read from file:
     ./O.pbe-van_ak.UPF
     MD5 check sum: 78c19812648e8988a0fe644b0f25305e
     Pseudo is Ultrasoft, Zval =  6.0
     Generated by new atomic code, or converted to UPF format
     Using radial grid of  737 points,  4 beta functions with: 
                l(1) =   0
                l(2) =   0
                l(3) =   1
                l(4) =   1
     Q(r) pseudized with  8 coefficients,  rinner =    0.800   0.800   0.800


     atomic species   valence    mass     pseudopotential
     H                 1.00     1.00800     H ( 1.00)
     O                 6.00    16.00000     O ( 1.00)

      6 Sym. Ops., with inversion, found



   Cartesian axes

     site n.     atom                  positions (alat units)
         1        O      tau(   1) = (  -0.4847673  -0.5197781   0.3083633  )
         2        O      tau(   2) = (   0.4847673   0.5197782   0.4953638  )
         3        O      tau(   3) = (   0.6925247  -0.1599317   0.3083633  )
         4        O      tau(   4) = (  -0.6925248   0.1599317   0.4953638  )
         5        O      tau(   5) = (  -0.2077574   0.6797099   0.3083633  )
         6        O      tau(   6) = (   0.2077574  -0.6797099   0.4953638  )
         7        O      tau(   7) = (   0.1218176   0.3323883   0.4179381  )
         8        O      tau(   8) = (  -0.1218176  -0.3323883   0.3857890  )
         9        O      tau(   9) = (  -0.3487655  -0.0606970   0.4179381  )
        10        O      tau(  10) = (   0.3487655   0.0606970   0.3857890  )
        11        O      tau(  11) = (   0.2269479  -0.2716913   0.4179381  )
        12        O      tau(  12) = (  -0.2269479   0.2716912   0.3857890  )
        13        H      tau(  13) = (  -0.5381668  -0.4032014   0.2796970  )
        14        H      tau(  14) = (   0.5381668   0.4032014   0.5240301  )
        15        H      tau(  15) = (   0.6182661  -0.2644654   0.2796970  )
        16        H      tau(  16) = (  -0.6182661   0.2644654   0.5240301  )
        17        H      tau(  17) = (  -0.0800993   0.6676668   0.2796970  )
        18        H      tau(  18) = (   0.0800993  -0.6676668   0.5240301  )
        19        H      tau(  19) = (  -0.4872704  -0.4817221   0.4326731  )
        20        H      tau(  20) = (   0.4872704   0.4817221   0.3710540  )
        21        H      tau(  21) = (   0.6608188  -0.1811275   0.4326731  )
        22        H      tau(  22) = (  -0.6608188   0.1811275   0.3710540  )
        23        H      tau(  23) = (  -0.1735484   0.6628496   0.4326731  )
        24        H      tau(  24) = (   0.1735484  -0.6628496   0.3710540  )
        25        H      tau(  25) = (   0.2703349  -0.1502973   0.4058822  )
        26        H      tau(  26) = (  -0.2703350   0.1502973   0.3978449  )
        27        H      tau(  27) = (  -0.0050062   0.3092656   0.4058822  )
        28        H      tau(  28) = (   0.0050062  -0.3092656   0.3978449  )
        29        H      tau(  29) = (  -0.2653287  -0.1589683   0.4058822  )
        30        H      tau(  30) = (   0.2653287   0.1589683   0.3978449  )
        31        H      tau(  31) = (   0.3178939  -0.3347969   0.3493534  )
        32        H      tau(  32) = (  -0.3178939   0.3347969   0.4543737  )
        33        H      tau(  33) = (   0.1309957   0.4427026   0.3493534  )
        34        H      tau(  34) = (  -0.1309956  -0.4427026   0.4543737  )
        35        H      tau(  35) = (  -0.4488895  -0.1079057   0.3493534  )
        36        H      tau(  36) = (   0.4488895   0.1079057   0.4543737  )

     number of k points=    14
                       cart. coord. in units 2pi/alat
        k(    1) = (   0.0000000   0.0000000   0.0000000), wk =   0.0312500
        k(    2) = (  -0.1498141  -0.0864952   0.3110508), wk =   0.1875000
        k(    3) = (   0.2996283   0.1729905  -0.6221017), wk =   0.0937500
        k(    4) = (  -0.1498141   0.0864952   0.6221017), wk =   0.1875000
        k(    5) = (   0.2996283   0.3459809  -0.3110508), wk =   0.1875000
        k(    6) = (   0.1498141   0.2594857   0.0000000), wk =   0.1875000
        k(    7) = (   0.2996283  -0.1729905  -1.2442034), wk =   0.0937500
        k(    8) = (   0.0000000   0.0000000   0.9331525), wk =   0.0625000
        k(    9) = (   0.4494424   0.2594857   0.0000000), wk =   0.1875000
        k(   10) = (   0.2996283   0.1729905   0.3110508), wk =   0.1875000
        k(   11) = (   0.4494424  -0.2594857  -0.9331525), wk =   0.1875000
        k(   12) = (   0.2996283  -0.3459809  -0.6221017), wk =   0.1875000
        k(   13) = (   0.0000000   0.0000000  -1.8663050), wk =   0.0312500
        k(   14) = (   0.2996283  -0.3459809   0.3110508), wk =   0.1875000

     Dense  grid:   196571 G-vectors     FFT dimensions: (  90,  90,  90)

     Estimated max dynamical RAM per process >      13.38 MB

     Estimated total dynamical RAM >       1.53 GB

     Initial potential from superposition of free atoms

     starting charge      95.9998, renormalised to      96.0000
     Starting wfcs are   72 randomized atomic wfcs

     total cpu time spent up to now is        1.1 secs

     per-process dynamical memory:    18.1 Mb

     Self-consistent Calculation

     iteration #  1     ecut=    90.00 Ry     beta= 0.70
     Davidson diagonalization with overlap
     ethr =  1.00E-02,  avg # of iterations =  2.0

     total cpu time spent up to now is        1.9 secs

     total energy              =    -412.10041946 Ry
     estimated scf accuracy    <       4.07017038 Ry

     iteration #  2     ecut=    90.00 Ry     beta= 0.70
     Davidson diagonalization with overlap
     ethr =  4.24E-03,  avg # of iterations =  3.0

     total cpu time spent up to now is        2.8 secs

     total energy              =    -413.41899820 Ry
     estimated scf accuracy    <       1.82409799 Ry

     iteration #  3     ecut=    90.00 Ry     beta= 0.70
     Davidson diagonalization with overlap
     ethr =  1.90E-03,  avg # of iterations =  2.0

     total cpu time spent up to now is        3.5 secs

     total energy              =    -413.63784927 Ry
     estimated scf accuracy    <       0.07565990 Ry

     iteration #  4     ecut=    90.00 Ry     beta= 0.70
     Davidson diagonalization with overlap
     ethr =  7.88E-05,  avg # of iterations =  4.0

     total cpu time spent up to now is        4.5 secs

     total energy              =    -413.68880355 Ry
     estimated scf accuracy    <       0.09806966 Ry

     iteration #  5     ecut=    90.00 Ry     beta= 0.70
     Davidson diagonalization with overlap
     ethr =  7.88E-05,  avg # of iterations =  2.0

     total cpu time spent up to now is        5.2 secs

     total energy              =    -413.69385086 Ry
     estimated scf accuracy    <       0.01462681 Ry

     iteration #  6     ecut=    90.00 Ry     beta= 0.70
     Davidson diagonalization with overlap
     ethr =  1.52E-05,  avg # of iterations =  2.0

     total cpu time spent up to now is        6.0 secs

     total energy              =    -413.69527468 Ry
     estimated scf accuracy    <       0.00243551 Ry

     iteration #  7     ecut=    90.00 Ry     beta= 0.70
     Davidson diagonalization with overlap
     ethr =  2.54E-06,  avg # of iterations =  3.0

     total cpu time spent up to now is        6.8 secs

     total energy              =    -413.69606284 Ry
     estimated scf accuracy    <       0.00000992 Ry

     iteration #  8     ecut=    90.00 Ry     beta= 0.70
     Davidson diagonalization with overlap
     ethr =  1.03E-08,  avg # of iterations =  6.2

     total cpu time spent up to now is        8.3 secs

     total energy              =    -413.69610534 Ry
     estimated scf accuracy    <       0.00002208 Ry

     iteration #  9     ecut=    90.00 Ry     beta= 0.70
     Davidson diagonalization with overlap
     ethr =  1.03E-08,  avg # of iterations =  2.0

     total cpu time spent up to now is        8.9 secs

     total energy              =    -413.69610210 Ry
     estimated scf accuracy    <       0.00000930 Ry

     iteration # 10     ecut=    90.00 Ry     beta= 0.70
     Davidson diagonalization with overlap
     ethr =  9.68E-09,  avg # of iterations =  2.0

     total cpu time spent up to now is        9.6 secs

     total energy              =    -413.69610305 Ry
     estimated scf accuracy    <       0.00000078 Ry

     iteration # 11     ecut=    90.00 Ry     beta= 0.70
     Davidson diagonalization with overlap
     ethr =  8.09E-10,  avg # of iterations =  3.0

     total cpu time spent up to now is       10.5 secs

     End of self-consistent calculation

          k = 0.0000 0.0000 0.0000 ( 24497 PWs)   bands (ev):

   -20.8545 -20.1948 -20.1948 -19.8852 -19.8852 -19.8611 -19.8611 -19.8275
   -19.8172 -19.3945 -19.3945 -18.9569  -7.9554  -7.7121  -7.6670  -7.6670
    -7.5022  -7.5022  -7.0832  -6.8931  -6.8931  -6.6616  -6.6616  -6.4792
    -6.4206  -5.2691  -5.2691  -4.5417  -4.5417  -4.4765  -4.4765  -4.1184
    -3.8628  -3.1486  -3.1486  -2.4323  -1.9541  -1.9541  -1.8178  -1.7377
    -1.6680  -1.6680  -1.5111  -1.5111  -1.4439  -1.4230  -1.3601  -1.3601

          k =-0.1498-0.0865 0.3111 ( 24583 PWs)   bands (ev):

   -20.7506 -20.2502 -20.1783 -20.0882 -20.0628 -19.9566 -19.7523 -19.6950
   -19.6152 -19.4060 -19.3463 -19.0411  -7.8857  -7.7926  -7.7036  -7.6373
    -7.4890  -7.4198  -7.0969  -6.8778  -6.8425  -6.7006  -6.5234  -6.4882
    -6.2174  -5.4458  -5.2747  -4.9624  -4.5825  -4.3927  -4.2519  -3.9726
    -3.9101  -3.1375  -3.0681  -2.5738  -2.1192  -2.0243  -1.8575  -1.7913
    -1.7169  -1.6592  -1.6125  -1.5445  -1.4486  -1.4102  -1.3506  -1.2920

          k = 0.2996 0.1730-0.6221 ( 24570 PWs)   bands (ev):

   -20.4860 -20.4684 -20.2352 -20.1914 -20.0642 -20.0487 -19.6818 -19.6556
   -19.4250 -19.4079 -19.2679 -19.2252  -7.8461  -7.7822  -7.6915  -7.6489
    -7.5056  -7.4268  -7.0359  -6.8805  -6.8215  -6.7118  -6.4106  -6.4080
    -5.8928  -5.7296  -5.3307  -5.1710  -4.5751  -4.4836  -4.2289  -4.0527
    -3.4098  -3.3276  -2.9972  -2.7582  -2.2679  -2.0599  -1.8924  -1.8665
    -1.7694  -1.7292  -1.6213  -1.5390  -1.5321  -1.3616  -1.3380  -1.2363

          k =-0.1498 0.0865 0.6221 ( 24623 PWs)   bands (ev):

   -20.5376 -20.3442 -20.3219 -20.1511 -20.1240 -20.0349 -19.6843 -19.5691
   -19.5172 -19.3524 -19.3279 -19.1930  -7.8570  -7.7567  -7.7351  -7.6097
    -7.5205  -7.4020  -7.0364  -6.9407  -6.8663  -6.5639  -6.4764  -6.4052
    -5.9005  -5.6449  -5.5178  -4.9554  -4.7386  -4.5276  -4.1444  -3.9065
    -3.6799  -3.1116  -3.0543  -2.7875  -2.2361  -2.1188  -1.8839  -1.8097
    -1.7729  -1.7162  -1.6537  -1.5520  -1.5119  -1.3711  -1.3474  -1.2275

          k = 0.2996 0.3460-0.3111 ( 24586 PWs)   bands (ev):

   -20.6149 -20.3917 -20.2244 -20.2107 -20.0707 -19.9895 -19.6814 -19.5493
   -19.5294 -19.3999 -19.3193 -19.1596  -7.8729  -7.8353  -7.6562  -7.6294
    -7.5476  -7.4305  -7.0968  -7.0166  -6.8584  -6.5254  -6.4890  -6.3874
    -6.0596  -5.6723  -5.3868  -4.9921  -4.9282  -4.3027  -4.1092  -3.8036
    -3.5346  -3.2871  -3.0518  -2.7451  -2.1006  -2.0180  -1.9047  -1.8184
    -1.7428  -1.6716  -1.6068  -1.5805  -1.4693  -1.4284  -1.3464  -1.2062

          k = 0.1498 0.2595 0.0000 ( 24585 PWs)   bands (ev):

   -20.7802 -20.3107 -20.2282 -20.0364 -19.9999 -19.8865 -19.7829 -19.6785
   -19.6265 -19.4129 -19.3590 -19.0241  -7.9333  -7.8126  -7.6913  -7.6222
    -7.4722  -7.4597  -7.1918  -6.9966  -6.7644  -6.6625  -6.5572  -6.4125
    -6.3937  -5.4071  -5.2423  -4.9615  -4.8402  -4.2510  -4.0796  -3.9643
    -3.7265  -3.2282  -3.1368  -2.5107  -1.9595  -1.9253  -1.8729  -1.7794
    -1.7271  -1.6898  -1.5354  -1.5087  -1.4686  -1.4487  -1.3139  -1.2926

          k = 0.2996-0.1730-1.2442 ( 24600 PWs)   bands (ev):

   -20.6034 -20.5431 -20.2555 -20.0990 -20.0050 -19.9078 -19.7103 -19.6453
   -19.5010 -19.4596 -19.2100 -19.1842  -7.9110  -7.8570  -7.6852  -7.6467
    -7.4575  -7.4343  -7.2066  -7.1039  -6.7591  -6.6886  -6.4575  -6.3930
    -5.9408  -5.9041  -5.3335  -5.1003  -4.7323  -4.3806  -3.9134  -3.6498
    -3.5201  -3.5023  -2.9632  -2.7425  -1.9877  -1.9116  -1.8740  -1.8299
    -1.7364  -1.6318  -1.6287  -1.5223  -1.5173  -1.4429  -1.2643  -1.2529

          k = 0.0000 0.0000 0.9332 ( 24581 PWs)   bands (ev):

   -20.4641 -20.4641 -20.3538 -20.2701 -20.0167 -20.0167 -19.5776 -19.5776
   -19.4234 -19.3383 -19.3194 -19.3194  -7.8373  -7.8373  -7.6652  -7.5708
    -7.5445  -7.5445  -7.1059  -6.9793  -6.9793  -6.4038  -6.4038  -6.3515
    -5.8074  -5.8074  -5.7944  -5.0134  -4.6262  -4.6262  -3.8552  -3.6504
    -3.6504  -3.1282  -3.1282  -2.9688  -2.0251  -2.0251  -1.8752  -1.7729
    -1.7109  -1.7109  -1.6199  -1.5572  -1.5572  -1.4093  -1.4093  -1.1747

          k = 0.4494 0.2595 0.0000 ( 24606 PWs)   bands (ev):

   -20.6423 -20.4094 -20.3932 -20.0985 -19.9291 -19.8977 -19.7286 -19.7079
   -19.5018 -19.3612 -19.3101 -19.1445  -7.8988  -7.8489  -7.7556  -7.5686
    -7.4959  -7.4285  -7.2214  -7.0392  -6.8824  -6.5543  -6.4778  -6.4277
    -6.0824  -5.6205  -5.5272  -5.0480  -4.7245  -4.3852  -3.8530  -3.8146
    -3.5682  -3.2469  -3.1017  -2.7150  -1.9591  -1.9489  -1.8564  -1.8345
    -1.7476  -1.6667  -1.5827  -1.5511  -1.4749  -1.4125  -1.3345  -1.2275

          k = 0.2996 0.1730 0.3111 ( 24587 PWs)   bands (ev):

   -20.6805 -20.3191 -20.1993 -20.1719 -20.0599 -19.9767 -19.7029 -19.6717
   -19.5585 -19.3957 -19.3106 -19.0937  -7.8950  -7.8267  -7.7282  -7.5723
    -7.5416  -7.3523  -7.1431  -6.9682  -6.7496  -6.6583  -6.5907  -6.4571
    -6.0924  -5.4353  -5.2276  -5.1320  -4.8913  -4.4288  -4.0763  -3.8326
    -3.6861  -3.1971  -3.0737  -2.6058  -2.1260  -2.0447  -1.9320  -1.8770
    -1.7406  -1.6894  -1.5867  -1.5391  -1.4272  -1.3815  -1.3026  -1.2876

          k = 0.4494-0.2595-0.9332 ( 24601 PWs)   bands (ev):

   -20.5025 -20.4860 -20.3010 -20.1967 -20.0409 -19.9395 -19.7568 -19.6429
   -19.4368 -19.3700 -19.2929 -19.1727  -7.9277  -7.8064  -7.7587  -7.5693
    -7.5115  -7.3356  -7.2078  -6.9344  -6.7768  -6.7076  -6.5112  -6.4623
    -5.7515  -5.7102  -5.3152  -5.1593  -4.9342  -4.5375  -4.0175  -3.6962
    -3.3771  -3.2844  -3.1098  -2.6953  -2.1102  -2.0691  -2.0232  -1.8806
    -1.8335  -1.7129  -1.5193  -1.4885  -1.4407  -1.3958  -1.3057  -1.2406

          k = 0.2996-0.3460-0.6221 ( 24560 PWs)   bands (ev):

   -20.4373 -20.4116 -20.2799 -20.2509 -20.0911 -20.0842 -19.6544 -19.6371
   -19.4254 -19.4090 -19.2623 -19.2122  -7.9412  -7.7049  -7.6712  -7.6391
    -7.5925  -7.3339  -7.0702  -6.9518  -6.7351  -6.6853  -6.4746  -6.4680
    -5.7093  -5.5665  -5.3617  -5.2292  -4.8374  -4.7888  -3.9222  -3.8394
    -3.3829  -3.3407  -3.0862  -2.6759  -2.3034  -2.0958  -2.0156  -1.9296
    -1.8483  -1.6694  -1.5806  -1.5273  -1.4902  -1.3416  -1.3173  -1.2154

          k = 0.0000 0.0000-1.8663 ( 24564 PWs)   bands (ev):

   -20.3833 -20.3244 -20.2436 -20.2436 -20.2260 -20.2260 -19.5539 -19.5539
   -19.4824 -19.4824 -19.2401 -19.1939  -8.0017  -7.6450  -7.6450  -7.6355
    -7.6355  -7.3106  -7.1248  -6.9583  -6.6147  -6.6147  -6.5814  -6.5814
    -5.4752  -5.3223  -5.2426  -5.2426  -5.1847  -5.1847  -3.6492  -3.6492
    -3.4381  -3.4381  -3.0830  -2.6163  -2.3396  -2.1053  -2.1053  -1.9873
    -1.9873  -1.5949  -1.5804  -1.4354  -1.4354  -1.3589  -1.3589  -1.1813

          k = 0.2996-0.3460 0.3111 ( 24586 PWs)   bands (ev):

   -20.6152 -20.3868 -20.2501 -20.1921 -20.0659 -19.9890 -19.6860 -19.5724
   -19.4878 -19.4276 -19.3047 -19.1631  -7.8894  -7.7986  -7.6979  -7.6102
    -7.5308  -7.4347  -7.1606  -6.9742  -6.8321  -6.5732  -6.4433  -6.4132
    -6.0432  -5.5917  -5.5090  -5.0295  -4.7794  -4.3826  -4.1979  -3.6890
    -3.4967  -3.2777  -3.1555  -2.7071  -2.1145  -1.9761  -1.9215  -1.8169
    -1.7587  -1.6742  -1.6133  -1.5759  -1.4914  -1.3890  -1.3460  -1.2174

     highest occupied level (ev):    -1.1747

!    total energy              =    -413.69610331 Ry
     estimated scf accuracy    <       0.00000002 Ry

     The total energy is the sum of the following terms:
     one-electron contribution =    -268.09427955 Ry
     hartree contribution      =     171.80476097 Ry
     xc contribution           =    -102.99744412 Ry
     ewald contribution        =    -214.40914062 Ry

     convergence has been achieved in  11 iterations

     Forces acting on atoms (cartesian axes, Ry/au):

     atom    1 type  2   force =     0.00698562   -0.04856012   -0.04586020
     atom    2 type  2   force =    -0.00698562    0.04856012    0.04586020
     atom    3 type  2   force =     0.03856149    0.03032978   -0.04586020
     atom    4 type  2   force =    -0.03856149   -0.03032978    0.04586020
     atom    5 type  2   force =    -0.04554711    0.01823034   -0.04586020
     atom    6 type  2   force =     0.04554711   -0.01823034    0.04586020
     atom    7 type  2   force =     0.06075821   -0.03756445    0.03587440
     atom    8 type  2   force =    -0.06075821    0.03756445   -0.03587440
     atom    9 type  2   force =     0.00215267    0.07140038    0.03587440
     atom   10 type  2   force =    -0.00215267   -0.07140038   -0.03587440
     atom   11 type  2   force =    -0.06291087   -0.03383592    0.03587440
     atom   12 type  2   force =     0.06291087    0.03383592   -0.03587440
     atom   13 type  1   force =    -0.03899203    0.06345022   -0.08666391
     atom   14 type  1   force =     0.03899203   -0.06345022    0.08666391
     atom   15 type  1   force =    -0.03545349   -0.06549320   -0.08666391
     atom   16 type  1   force =     0.03545349    0.06549320    0.08666391
     atom   17 type  1   force =     0.07444552    0.00204298   -0.08666391
     atom   18 type  1   force =    -0.07444552   -0.00204298    0.08666391
     atom   19 type  1   force =     0.03396782   -0.02323631    0.11918867
     atom   20 type  1   force =    -0.03396782    0.02323631   -0.11918867
     atom   21 type  1   force =     0.00313932    0.04103515    0.11918867
     atom   22 type  1   force =    -0.00313932   -0.04103515   -0.11918867
     atom   23 type  1   force =    -0.03710714   -0.01779884    0.11918867
     atom   24 type  1   force =     0.03710714    0.01779884   -0.11918867
     atom   25 type  1   force =     0.01765971    0.10437327    0.00666004
     atom   26 type  1   force =    -0.01765971   -0.10437327   -0.00666004
     atom   27 type  1   force =    -0.09921976   -0.03689288    0.00666004
     atom   28 type  1   force =     0.09921976    0.03689288   -0.00666004
     atom   29 type  1   force =     0.08156005   -0.06748040    0.00666004
     atom   30 type  1   force =    -0.08156005    0.06748040   -0.00666004
     atom   31 type  1   force =     0.04300264   -0.06977495   -0.03960294
     atom   32 type  1   force =    -0.04300264    0.06977495    0.03960294
     atom   33 type  1   force =     0.03892556    0.07212886   -0.03960294
     atom   34 type  1   force =    -0.03892556   -0.07212886    0.03960294
     atom   35 type  1   force =    -0.08192820   -0.00235390   -0.03960294
     atom   36 type  1   force =     0.08192820    0.00235390    0.03960294

     Total force =     0.596955     Total SCF correction =     0.000242


     Computing stress (Cartesian axis) and pressure

          total   stress  (Ry/bohr**3)                   (kbar)     P=      171.73
   0.00110692   0.00000000  -0.00000000          162.83        0.00       -0.00
  -0.00000000   0.00110692   0.00000000           -0.00      162.83        0.00
  -0.00000000   0.00000000   0.00128842           -0.00        0.00      189.53


     Writing all to output data dir ./iceII/iceII.save/ :
     XML data file, charge density, pseudopotentials, collected wavefunctions

     init_run     :      0.86s CPU      0.90s WALL (       1 calls)
     electrons    :      9.15s CPU      9.41s WALL (       1 calls)
     forces       :      0.10s CPU      0.11s WALL (       1 calls)
     stress       :      0.71s CPU      0.73s WALL (       1 calls)

     Called by init_run:
     wfcinit      :      0.32s CPU      0.32s WALL (       1 calls)
     potinit      :      0.03s CPU      0.05s WALL (       1 calls)
     hinit0       :      0.39s CPU      0.39s WALL (       1 calls)

     Called by electrons:
     c_bands      :      7.78s CPU      7.93s WALL (      11 calls)
     sum_band     :      1.06s CPU      1.09s WALL (      11 calls)
     v_of_rho     :      0.21s CPU      0.24s WALL (      12 calls)
     newd         :      0.04s CPU      0.04s WALL (      12 calls)
     mix_rho      :      0.03s CPU      0.03s WALL (      11 calls)

     Called by c_bands:
     init_us_2    :      0.10s CPU      0.11s WALL (     100 calls)
     cegterg      :      7.51s CPU      7.62s WALL (      44 calls)

     Called by *egterg:
     cdiaghg      :      0.65s CPU      0.65s WALL (     168 calls)
     h_psi        :      5.99s CPU      6.07s WALL (     172 calls)
     s_psi        :      0.21s CPU      0.22s WALL (     172 calls)
     g_psi        :      0.01s CPU      0.01s WALL (     124 calls)

     Called by h_psi:
     h_psi:calbec :      0.38s CPU      0.39s WALL (     172 calls)
     vloc_psi     :      5.34s CPU      5.40s WALL (     172 calls)
     add_vuspsi   :      0.23s CPU      0.23s WALL (     172 calls)

     General routines
     calbec       :      0.52s CPU      0.52s WALL (     236 calls)
     fft          :      0.47s CPU      0.49s WALL (     140 calls)
     ffts         :      0.01s CPU      0.01s WALL (      11 calls)
     fftw         :      5.55s CPU      5.62s WALL (   15850 calls)

     Parallel routines

     PWSCF        :     11.11s CPU     11.72s WALL


   This run was terminated on:  18: 4:45  21Mar2026            

=------------------------------------------------------------------------------=
   JOB DONE.
=------------------------------------------------------------------------------=
