
     Program PWSCF v.7.3.1 starts on 21Mar2026 at 18: 6:26 

     This program is part of the open-source Quantum ESPRESSO suite
     for quantum simulation of materials; please cite
         "P. Giannozzi et al., J. Phys.:Condens. Matter 21 395502 (2009);
         "P. Giannozzi et al., J. Phys.:Condens. Matter 29 465901 (2017);
         "P. Giannozzi et al., J. Chem. Phys. 152 154105 (2020);
          URL http://www.quantum-espresso.org", 
     in publications or presentations arising from this work. More details at
     http://www.quantum-espresso.org/quote

     Parallel version (MPI), running on   128 processors

     MPI processes distributed on     1 nodes
     243054 MiB available memory on the printing compute node when the environment starts

     Waiting for input...
     Reading input from standard input

     Current dimensions of program PWSCF are:
     Max number of different atomic species (ntypx) = 10
     Max number of k-points (npk) =  40000
     Max angular momentum in pseudopotentials (lmaxx) =  4

     K-points division:     npool     =       4
     R & G space division:  proc/nbgrp/npool/nimage =      32
     Subspace diagonalization in iterative solution of the eigenvalue problem:
     a serial algorithm will be used


     Parallelization info
     --------------------
     sticks:   dense  smooth     PW     G-vecs:    dense   smooth      PW
     Min         157     157     46                 6187     6187     998
     Max         158     158     47                 6191     6191    1000
     Sum        5051    5051   1499               198065   198065   31969

     Using Slab Decomposition



     bravais-lattice index     =            5
     lattice parameter (alat)  =      13.8493  a.u.
     unit-cell volume          =    1716.2494 (a.u.)^3
     number of atoms/cell      =           36
     number of atomic types    =            2
     number of electrons       =        96.00
     number of Kohn-Sham states=           48
     kinetic-energy cutoff     =      90.0000  Ry
     charge density cutoff     =     360.0000  Ry
     scf convergence threshold =      1.0E-07
     mixing beta               =       0.7000
     number of iterations used =            8  plain     mixing
     Exchange-correlation=  SLA  PW   PBE  PBE
                           (   1   4   3   4   0   0   0)

     celldm(1)=  13.849348  celldm(2)=   0.000000  celldm(3)=   0.000000
     celldm(4)=  -0.392337  celldm(5)=   0.000000  celldm(6)=   0.000000

     crystal axes: (cart. coord. in units of alat)
               a(1) = (   0.834367  -0.481722   0.267909 )  
               a(2) = (   0.000000   0.963444   0.267909 )  
               a(3) = (  -0.834367  -0.481722   0.267909 )  

     reciprocal axes: (cart. coord. in units 2 pi/alat)
               b(1) = (  0.599257 -0.345981  1.244203 )  
               b(2) = ( -0.000000  0.691962  1.244203 )  
               b(3) = ( -0.599257 -0.345981  1.244203 )  


     PseudoPot. # 1 for H  read from file:
     ./H.pbe-van_ak.UPF
     MD5 check sum: 077eb6d537518a38cb46c6de387227b7
     Pseudo is Ultrasoft, Zval =  1.0
     Generated by new atomic code, or converted to UPF format
     Using radial grid of  615 points,  1 beta functions with: 
                l(1) =   0
     Q(r) pseudized with  8 coefficients,  rinner =    0.800

     PseudoPot. # 2 for O  read from file:
     ./O.pbe-van_ak.UPF
     MD5 check sum: 78c19812648e8988a0fe644b0f25305e
     Pseudo is Ultrasoft, Zval =  6.0
     Generated by new atomic code, or converted to UPF format
     Using radial grid of  737 points,  4 beta functions with: 
                l(1) =   0
                l(2) =   0
                l(3) =   1
                l(4) =   1
     Q(r) pseudized with  8 coefficients,  rinner =    0.800   0.800   0.800


     atomic species   valence    mass     pseudopotential
     H                 1.00     1.00800     H ( 1.00)
     O                 6.00    16.00000     O ( 1.00)

      6 Sym. Ops., with inversion, found



   Cartesian axes

     site n.     atom                  positions (alat units)
         1        O      tau(   1) = (  -0.4847673  -0.5197781   0.3083633  )
         2        O      tau(   2) = (   0.4847673   0.5197782   0.4953638  )
         3        O      tau(   3) = (   0.6925247  -0.1599317   0.3083633  )
         4        O      tau(   4) = (  -0.6925248   0.1599317   0.4953638  )
         5        O      tau(   5) = (  -0.2077574   0.6797099   0.3083633  )
         6        O      tau(   6) = (   0.2077574  -0.6797099   0.4953638  )
         7        O      tau(   7) = (   0.1218176   0.3323883   0.4179381  )
         8        O      tau(   8) = (  -0.1218176  -0.3323883   0.3857890  )
         9        O      tau(   9) = (  -0.3487655  -0.0606970   0.4179381  )
        10        O      tau(  10) = (   0.3487655   0.0606970   0.3857890  )
        11        O      tau(  11) = (   0.2269479  -0.2716913   0.4179381  )
        12        O      tau(  12) = (  -0.2269479   0.2716912   0.3857890  )
        13        H      tau(  13) = (  -0.5381668  -0.4032014   0.2796970  )
        14        H      tau(  14) = (   0.5381668   0.4032014   0.5240301  )
        15        H      tau(  15) = (   0.6182661  -0.2644654   0.2796970  )
        16        H      tau(  16) = (  -0.6182661   0.2644654   0.5240301  )
        17        H      tau(  17) = (  -0.0800993   0.6676668   0.2796970  )
        18        H      tau(  18) = (   0.0800993  -0.6676668   0.5240301  )
        19        H      tau(  19) = (  -0.4872704  -0.4817221   0.4326731  )
        20        H      tau(  20) = (   0.4872704   0.4817221   0.3710540  )
        21        H      tau(  21) = (   0.6608188  -0.1811275   0.4326731  )
        22        H      tau(  22) = (  -0.6608188   0.1811275   0.3710540  )
        23        H      tau(  23) = (  -0.1735484   0.6628496   0.4326731  )
        24        H      tau(  24) = (   0.1735484  -0.6628496   0.3710540  )
        25        H      tau(  25) = (   0.2703349  -0.1502973   0.4058822  )
        26        H      tau(  26) = (  -0.2703350   0.1502973   0.3978449  )
        27        H      tau(  27) = (  -0.0050062   0.3092656   0.4058822  )
        28        H      tau(  28) = (   0.0050062  -0.3092656   0.3978449  )
        29        H      tau(  29) = (  -0.2653287  -0.1589683   0.4058822  )
        30        H      tau(  30) = (   0.2653287   0.1589683   0.3978449  )
        31        H      tau(  31) = (   0.3178939  -0.3347969   0.3493534  )
        32        H      tau(  32) = (  -0.3178939   0.3347969   0.4543737  )
        33        H      tau(  33) = (   0.1309957   0.4427026   0.3493534  )
        34        H      tau(  34) = (  -0.1309956  -0.4427026   0.4543737  )
        35        H      tau(  35) = (  -0.4488895  -0.1079057   0.3493534  )
        36        H      tau(  36) = (   0.4488895   0.1079057   0.4543737  )

     number of k points=    14
                       cart. coord. in units 2pi/alat
        k(    1) = (   0.0000000   0.0000000   0.0000000), wk =   0.0312500
        k(    2) = (  -0.1498141  -0.0864952   0.3110508), wk =   0.1875000
        k(    3) = (   0.2996283   0.1729905  -0.6221017), wk =   0.0937500
        k(    4) = (  -0.1498141   0.0864952   0.6221017), wk =   0.1875000
        k(    5) = (   0.2996283   0.3459809  -0.3110508), wk =   0.1875000
        k(    6) = (   0.1498141   0.2594857   0.0000000), wk =   0.1875000
        k(    7) = (   0.2996283  -0.1729905  -1.2442034), wk =   0.0937500
        k(    8) = (   0.0000000   0.0000000   0.9331525), wk =   0.0625000
        k(    9) = (   0.4494424   0.2594857   0.0000000), wk =   0.1875000
        k(   10) = (   0.2996283   0.1729905   0.3110508), wk =   0.1875000
        k(   11) = (   0.4494424  -0.2594857  -0.9331525), wk =   0.1875000
        k(   12) = (   0.2996283  -0.3459809  -0.6221017), wk =   0.1875000
        k(   13) = (   0.0000000   0.0000000  -1.8663050), wk =   0.0312500
        k(   14) = (   0.2996283  -0.3459809   0.3110508), wk =   0.1875000

     Dense  grid:   198065 G-vectors     FFT dimensions: (  90,  90,  90)

     Estimated max dynamical RAM per process >      13.45 MB

     Estimated total dynamical RAM >       1.54 GB

     Initial potential from superposition of free atoms

     starting charge      95.9998, renormalised to      96.0000
     Starting wfcs are   72 randomized atomic wfcs

     total cpu time spent up to now is        1.1 secs

     per-process dynamical memory:    18.3 Mb

     Self-consistent Calculation

     iteration #  1     ecut=    90.00 Ry     beta= 0.70
     Davidson diagonalization with overlap
     ethr =  1.00E-02,  avg # of iterations =  2.0

     total cpu time spent up to now is        1.9 secs

     total energy              =    -412.11496023 Ry
     estimated scf accuracy    <       4.05573119 Ry

     iteration #  2     ecut=    90.00 Ry     beta= 0.70
     Davidson diagonalization with overlap
     ethr =  4.22E-03,  avg # of iterations =  3.0

     total cpu time spent up to now is        2.8 secs

     total energy              =    -413.42696524 Ry
     estimated scf accuracy    <       1.84389251 Ry

     iteration #  3     ecut=    90.00 Ry     beta= 0.70
     Davidson diagonalization with overlap
     ethr =  1.92E-03,  avg # of iterations =  2.0

     total cpu time spent up to now is        3.5 secs

     total energy              =    -413.64990988 Ry
     estimated scf accuracy    <       0.07606073 Ry

     iteration #  4     ecut=    90.00 Ry     beta= 0.70
     Davidson diagonalization with overlap
     ethr =  7.92E-05,  avg # of iterations =  4.0

     total cpu time spent up to now is        4.5 secs

     total energy              =    -413.70140767 Ry
     estimated scf accuracy    <       0.09952737 Ry

     iteration #  5     ecut=    90.00 Ry     beta= 0.70
     Davidson diagonalization with overlap
     ethr =  7.92E-05,  avg # of iterations =  2.0

     total cpu time spent up to now is        5.2 secs

     total energy              =    -413.70658687 Ry
     estimated scf accuracy    <       0.01483592 Ry

     iteration #  6     ecut=    90.00 Ry     beta= 0.70
     Davidson diagonalization with overlap
     ethr =  1.55E-05,  avg # of iterations =  2.0

     total cpu time spent up to now is        6.0 secs

     total energy              =    -413.70798866 Ry
     estimated scf accuracy    <       0.00251181 Ry

     iteration #  7     ecut=    90.00 Ry     beta= 0.70
     Davidson diagonalization with overlap
     ethr =  2.62E-06,  avg # of iterations =  3.0

     total cpu time spent up to now is        6.8 secs

     total energy              =    -413.70879793 Ry
     estimated scf accuracy    <       0.00001133 Ry

     iteration #  8     ecut=    90.00 Ry     beta= 0.70
     Davidson diagonalization with overlap
     ethr =  1.18E-08,  avg # of iterations =  6.1

     total cpu time spent up to now is        8.1 secs

     total energy              =    -413.70884331 Ry
     estimated scf accuracy    <       0.00002461 Ry

     iteration #  9     ecut=    90.00 Ry     beta= 0.70
     Davidson diagonalization with overlap
     ethr =  1.18E-08,  avg # of iterations =  2.0

     total cpu time spent up to now is        8.7 secs

     total energy              =    -413.70883885 Ry
     estimated scf accuracy    <       0.00001192 Ry

     iteration # 10     ecut=    90.00 Ry     beta= 0.70
     Davidson diagonalization with overlap
     ethr =  1.18E-08,  avg # of iterations =  2.0

     total cpu time spent up to now is        9.5 secs

     total energy              =    -413.70884000 Ry
     estimated scf accuracy    <       0.00000102 Ry

     iteration # 11     ecut=    90.00 Ry     beta= 0.70
     Davidson diagonalization with overlap
     ethr =  1.07E-09,  avg # of iterations =  3.0

     total cpu time spent up to now is       10.3 secs

     End of self-consistent calculation

          k = 0.0000 0.0000 0.0000 ( 24749 PWs)   bands (ev):

   -20.8554 -20.2035 -20.2035 -19.8972 -19.8972 -19.8728 -19.8728 -19.8399
   -19.8302 -19.4119 -19.4119 -18.9790  -7.9659  -7.7243  -7.6784  -7.6784
    -7.5170  -7.5170  -7.0979  -6.9094  -6.9094  -6.6780  -6.6780  -6.4976
    -6.4387  -5.2965  -5.2965  -4.5744  -4.5744  -4.5088  -4.5088  -4.1524
    -3.8997  -3.1879  -3.1879  -2.4729  -1.9869  -1.9869  -1.8522  -1.7719
    -1.7029  -1.7029  -1.5465  -1.5465  -1.4815  -1.4604  -1.3982  -1.3982

          k =-0.1498-0.0865 0.3111 ( 24723 PWs)   bands (ev):

   -20.7526 -20.2583 -20.1870 -20.0979 -20.0725 -19.9675 -19.7656 -19.7088
   -19.6299 -19.4232 -19.3642 -19.0623  -7.8967  -7.8040  -7.7154  -7.6499
    -7.5036  -7.4346  -7.1110  -6.8932  -6.8589  -6.7170  -6.5417  -6.5063
    -6.2381  -5.4722  -5.3026  -4.9918  -4.6142  -4.4260  -4.2853  -4.0080
    -3.9459  -3.1767  -3.1077  -2.6140  -2.1503  -2.0560  -1.8912  -1.8253
    -1.7514  -1.6947  -1.6480  -1.5801  -1.4854  -1.4470  -1.3883  -1.3302

          k = 0.2996 0.1730-0.6221 ( 24764 PWs)   bands (ev):

   -20.4909 -20.4738 -20.2432 -20.2005 -20.0739 -20.0588 -19.6956 -19.6700
   -19.4418 -19.4251 -19.2864 -19.2445  -7.8577  -7.7940  -7.7034  -7.6618
    -7.5197  -7.4414  -7.0502  -6.8959  -6.8376  -6.7281  -6.4300  -6.4276
    -5.9166  -5.7541  -5.3587  -5.1988  -4.6069  -4.5157  -4.2630  -4.0875
    -3.4486  -3.3645  -3.0371  -2.7980  -2.2975  -2.0911  -1.9258  -1.8997
    -1.8034  -1.7641  -1.6568  -1.5753  -1.5679  -1.3987  -1.3756  -1.2748

          k =-0.1498 0.0865 0.6221 ( 24768 PWs)   bands (ev):

   -20.5420 -20.3507 -20.3291 -20.1602 -20.1333 -20.0451 -19.6982 -19.5844
   -19.5330 -19.3701 -19.3458 -19.2126  -7.8686  -7.7686  -7.7470  -7.6224
    -7.5347  -7.4171  -7.0508  -6.9552  -6.8817  -6.5820  -6.4951  -6.4246
    -5.9241  -5.6700  -5.5440  -4.9849  -4.7698  -4.5597  -4.1788  -3.9419
    -3.7161  -3.1502  -3.0946  -2.8267  -2.2659  -2.1495  -1.9170  -1.8442
    -1.8073  -1.7507  -1.6889  -1.5878  -1.5479  -1.4082  -1.3848  -1.2661

          k = 0.2996 0.3460-0.3111 ( 24748 PWs)   bands (ev):

   -20.6184 -20.3978 -20.2326 -20.2189 -20.0810 -20.0001 -19.6956 -19.5646
   -19.5452 -19.4172 -19.3374 -19.1795  -7.8841  -7.8470  -7.6688  -7.6421
    -7.5612  -7.4448  -7.1102  -7.0307  -6.8736  -6.5436  -6.5075  -6.4070
    -6.0820  -5.6978  -5.4139  -5.0212  -4.9581  -4.3371  -4.1435  -3.8396
    -3.5721  -3.3252  -3.0913  -2.7849  -2.1323  -2.0500  -1.9377  -1.8518
    -1.7772  -1.7067  -1.6419  -1.6163  -1.5062  -1.4652  -1.3840  -1.2452

          k = 0.1498 0.2595 0.0000 ( 24725 PWs)   bands (ev):

   -20.7819 -20.3178 -20.2362 -20.0468 -20.0106 -19.8985 -19.7958 -19.6927
   -19.6411 -19.4300 -19.3768 -19.0455  -7.9440  -7.8239  -7.7032  -7.6351
    -7.4863  -7.4742  -7.2043  -7.0113  -6.7806  -6.6791  -6.5753  -6.4309
    -6.4135  -5.4344  -5.2707  -4.9908  -4.8696  -4.2851  -4.1151  -3.9993
    -3.7637  -3.2670  -3.1755  -2.5519  -1.9922  -1.9585  -1.9065  -1.8131
    -1.7612  -1.7243  -1.5712  -1.5452  -1.5051  -1.4858  -1.3521  -1.3310

          k = 0.2996-0.1730-1.2442 ( 24756 PWs)   bands (ev):

   -20.6069 -20.5475 -20.2631 -20.1090 -20.0155 -19.9199 -19.7239 -19.6600
   -19.5168 -19.4763 -19.2293 -19.2039  -7.9218  -7.8684  -7.6980  -7.6596
    -7.4711  -7.4486  -7.2185  -7.1171  -6.7748  -6.7051  -6.4759  -6.4121
    -5.9652  -5.9283  -5.3613  -5.1284  -4.7624  -4.4144  -3.9505  -3.6871
    -3.5579  -3.5384  -3.0027  -2.7833  -2.0200  -1.9449  -1.9081  -1.8628
    -1.7702  -1.6676  -1.6636  -1.5585  -1.5532  -1.4800  -1.3030  -1.2915

          k = 0.0000 0.0000 0.9332 ( 24713 PWs)   bands (ev):

   -20.4692 -20.4692 -20.3601 -20.2780 -20.0275 -20.0275 -19.5929 -19.5929
   -19.4400 -19.3565 -19.3373 -19.3373  -7.8490  -7.8490  -7.6780  -7.5828
    -7.5581  -7.5581  -7.1194  -6.9935  -6.9935  -6.4231  -6.4231  -6.3714
    -5.8315  -5.8315  -5.8190  -5.0427  -4.6581  -4.6581  -3.8908  -3.6869
    -3.6869  -3.1673  -3.1673  -3.0071  -2.0574  -2.0574  -1.9083  -1.8077
    -1.7454  -1.7454  -1.6558  -1.5928  -1.5928  -1.4462  -1.4462  -1.2139

          k = 0.4494 0.2595 0.0000 ( 24775 PWs)   bands (ev):

   -20.6454 -20.4150 -20.3994 -20.1087 -19.9404 -19.9099 -19.7419 -19.7219
   -19.5176 -19.3789 -19.3284 -19.1646  -7.9099  -7.8601  -7.7678  -7.5820
    -7.5097  -7.4423  -7.2335  -7.0528  -6.8969  -6.5720  -6.4964  -6.4463
    -6.1054  -5.6466  -5.5539  -5.0763  -4.7554  -4.4186  -3.8896  -3.8510
    -3.6060  -3.2855  -3.1402  -2.7557  -1.9918  -1.9817  -1.8906  -1.8675
    -1.7816  -1.7015  -1.6181  -1.5869  -1.5116  -1.4499  -1.3725  -1.2664

          k = 0.2996 0.1730 0.3111 ( 24726 PWs)   bands (ev):

   -20.6833 -20.3263 -20.2073 -20.1811 -20.0697 -19.9875 -19.7168 -19.6857
   -19.5741 -19.4128 -19.3290 -19.1144  -7.9061  -7.8381  -7.7401  -7.5852
    -7.5556  -7.3677  -7.1561  -6.9829  -6.7657  -6.6750  -6.6082  -6.4760
    -6.1147  -5.4623  -5.2557  -5.1608  -4.9203  -4.4619  -4.1115  -3.8694
    -3.7224  -3.2365  -3.1126  -2.6466  -2.1573  -2.0760  -1.9649  -1.9098
    -1.7748  -1.7239  -1.6223  -1.5752  -1.4644  -1.4188  -1.3407  -1.3256

          k = 0.4494-0.2595-0.9332 ( 24754 PWs)   bands (ev):

   -20.5071 -20.4913 -20.3080 -20.2057 -20.0510 -19.9505 -19.7702 -19.6575
   -19.4537 -19.3874 -19.3113 -19.1926  -7.9387  -7.8182  -7.7707  -7.5827
    -7.5252  -7.3508  -7.2202  -6.9487  -6.7925  -6.7238  -6.5293  -6.4812
    -5.7766  -5.7355  -5.3430  -5.1875  -4.9637  -4.5700  -4.0534  -3.7334
    -3.4147  -3.3239  -3.1489  -2.7354  -2.1422  -2.1005  -2.0547  -1.9132
    -1.8666  -1.7471  -1.5554  -1.5251  -1.4779  -1.4331  -1.3438  -1.2791

          k = 0.2996-0.3460-0.6221 ( 24720 PWs)   bands (ev):

   -20.4428 -20.4178 -20.2874 -20.2591 -20.1004 -20.0937 -19.6686 -19.6516
   -19.4423 -19.4262 -19.2808 -19.2318  -7.9522  -7.7171  -7.6836  -7.6521
    -7.6060  -7.3494  -7.0844  -6.9658  -6.7516  -6.7019  -6.4934  -6.4868
    -5.7347  -5.5925  -5.3891  -5.2568  -4.8674  -4.8195  -3.9584  -3.8761
    -3.4205  -3.3783  -3.1266  -2.7161  -2.3327  -2.1264  -2.0473  -1.9619
    -1.8817  -1.7042  -1.6161  -1.5635  -1.5269  -1.3792  -1.3551  -1.2541

          k = 0.0000 0.0000-1.8663 ( 24756 PWs)   bands (ev):

   -20.3898 -20.3323 -20.2508 -20.2508 -20.2340 -20.2340 -19.5691 -19.5691
   -19.4990 -19.4990 -19.2589 -19.2137  -8.0122  -7.6583  -7.6583  -7.6483
    -7.6483  -7.3254  -7.1392  -6.9719  -6.6321  -6.6321  -6.5990  -6.5990
    -5.5028  -5.3487  -5.2697  -5.2697  -5.2143  -5.2143  -3.6875  -3.6875
    -3.4753  -3.4753  -3.1240  -2.6570  -2.3689  -2.1356  -2.1356  -2.0188
    -2.0188  -1.6305  -1.6158  -1.4725  -1.4725  -1.3964  -1.3964  -1.2204

          k = 0.2996-0.3460 0.3111 ( 24748 PWs)   bands (ev):

   -20.6187 -20.3930 -20.2578 -20.2006 -20.0763 -19.9997 -19.7000 -19.5874
   -19.5043 -19.4443 -19.3231 -19.1830  -7.9006  -7.8103  -7.7103  -7.6235
    -7.5439  -7.4491  -7.1734  -6.9887  -6.8473  -6.5911  -6.4620  -6.4327
    -6.0660  -5.6176  -5.5350  -5.0591  -4.8093  -4.4162  -4.2320  -3.7258
    -3.5349  -3.3158  -3.1935  -2.7478  -2.1459  -2.0087  -1.9544  -1.8503
    -1.7927  -1.7094  -1.6482  -1.6120  -1.5280  -1.4261  -1.3836  -1.2563

     highest occupied level (ev):    -1.2139

!    total energy              =    -413.70884037 Ry
     estimated scf accuracy    <       0.00000001 Ry

     The total energy is the sum of the following terms:
     one-electron contribution =    -268.90617385 Ry
     hartree contribution      =     172.08643456 Ry
     xc contribution           =    -102.93518157 Ry
     ewald contribution        =    -213.95391951 Ry

     convergence has been achieved in  11 iterations

     Forces acting on atoms (cartesian axes, Ry/au):

     atom    1 type  2   force =     0.00527731   -0.04398723   -0.04269334
     atom    2 type  2   force =    -0.00527731    0.04398723    0.04269334
     atom    3 type  2   force =     0.03545540    0.02656390   -0.04269334
     atom    4 type  2   force =    -0.03545540   -0.02656390    0.04269334
     atom    5 type  2   force =    -0.04073271    0.01742333   -0.04269334
     atom    6 type  2   force =     0.04073271   -0.01742333    0.04269334
     atom    7 type  2   force =     0.05703445   -0.03506795    0.03350557
     atom    8 type  2   force =    -0.05703445    0.03506795   -0.03350557
     atom    9 type  2   force =     0.00185251    0.06692726    0.03350557
     atom   10 type  2   force =    -0.00185251   -0.06692726   -0.03350557
     atom   11 type  2   force =    -0.05888696   -0.03185930    0.03350557
     atom   12 type  2   force =     0.05888696    0.03185930   -0.03350557
     atom   13 type  1   force =    -0.03728248    0.05984162   -0.08528849
     atom   14 type  1   force =     0.03728248   -0.05984162    0.08528849
     atom   15 type  1   force =    -0.03318312   -0.06220838   -0.08528849
     atom   16 type  1   force =     0.03318312    0.06220838    0.08528849
     atom   17 type  1   force =     0.07046560    0.00236676   -0.08528849
     atom   18 type  1   force =    -0.07046560   -0.00236676    0.08528849
     atom   19 type  1   force =     0.03381783   -0.02415770    0.11482014
     atom   20 type  1   force =    -0.03381783    0.02415770   -0.11482014
     atom   21 type  1   force =     0.00401227    0.04136595    0.11482014
     atom   22 type  1   force =    -0.00401227   -0.04136595   -0.11482014
     atom   23 type  1   force =    -0.03783009   -0.01720825    0.11482014
     atom   24 type  1   force =     0.03783009    0.01720825   -0.11482014
     atom   25 type  1   force =     0.01638632    0.10008911    0.00691395
     atom   26 type  1   force =    -0.01638632   -0.10008911   -0.00691395
     atom   27 type  1   force =    -0.09487287   -0.03585359    0.00691395
     atom   28 type  1   force =     0.09487287    0.03585359   -0.00691395
     atom   29 type  1   force =     0.07848655   -0.06423553    0.00691395
     atom   30 type  1   force =    -0.07848655    0.06423553   -0.00691395
     atom   31 type  1   force =     0.04008356   -0.06736536   -0.03732532
     atom   32 type  1   force =    -0.04008356    0.06736536    0.03732532
     atom   33 type  1   force =     0.03829833    0.06839606   -0.03732532
     atom   34 type  1   force =    -0.03829833   -0.06839606    0.03732532
     atom   35 type  1   force =    -0.07838190   -0.00103070   -0.03732532
     atom   36 type  1   force =     0.07838190    0.00103070    0.03732532

     Total force =     0.571414     Total SCF correction =     0.000205


     Computing stress (Cartesian axis) and pressure

          total   stress  (Ry/bohr**3)                   (kbar)     P=      162.94
   0.00104616   0.00000000  -0.00000000          153.90        0.00       -0.00
  -0.00000000   0.00104616   0.00000000           -0.00      153.90        0.00
  -0.00000000   0.00000000   0.00123061           -0.00        0.00      181.03


     Writing all to output data dir ./iceII/iceII.save/ :
     XML data file, charge density, pseudopotentials, collected wavefunctions

     init_run     :      0.86s CPU      0.91s WALL (       1 calls)
     electrons    :      9.07s CPU      9.25s WALL (       1 calls)
     forces       :      0.11s CPU      0.11s WALL (       1 calls)
     stress       :      0.72s CPU      0.73s WALL (       1 calls)

     Called by init_run:
     wfcinit      :      0.31s CPU      0.33s WALL (       1 calls)
     potinit      :      0.03s CPU      0.04s WALL (       1 calls)
     hinit0       :      0.39s CPU      0.39s WALL (       1 calls)

     Called by electrons:
     c_bands      :      7.71s CPU      7.80s WALL (      11 calls)
     sum_band     :      1.05s CPU      1.07s WALL (      11 calls)
     v_of_rho     :      0.22s CPU      0.23s WALL (      12 calls)
     newd         :      0.05s CPU      0.05s WALL (      12 calls)
     mix_rho      :      0.03s CPU      0.03s WALL (      11 calls)

     Called by c_bands:
     init_us_2    :      0.11s CPU      0.11s WALL (     100 calls)
     cegterg      :      7.49s CPU      7.57s WALL (      44 calls)

     Called by *egterg:
     cdiaghg      :      0.63s CPU      0.64s WALL (     168 calls)
     h_psi        :      5.97s CPU      6.05s WALL (     172 calls)
     s_psi        :      0.22s CPU      0.22s WALL (     172 calls)
     g_psi        :      0.01s CPU      0.01s WALL (     124 calls)

     Called by h_psi:
     h_psi:calbec :      0.39s CPU      0.39s WALL (     172 calls)
     vloc_psi     :      5.31s CPU      5.39s WALL (     172 calls)
     add_vuspsi   :      0.23s CPU      0.24s WALL (     172 calls)

     General routines
     calbec       :      0.53s CPU      0.53s WALL (     236 calls)
     fft          :      0.48s CPU      0.49s WALL (     140 calls)
     ffts         :      0.01s CPU      0.01s WALL (      11 calls)
     fftw         :      5.52s CPU      5.59s WALL (   15858 calls)

     Parallel routines

     PWSCF        :     11.04s CPU     11.60s WALL


   This run was terminated on:  18: 6:38  21Mar2026            

=------------------------------------------------------------------------------=
   JOB DONE.
=------------------------------------------------------------------------------=
