
     Program PWSCF v.7.3.1 starts on 21Mar2026 at 18: 8:19 

     This program is part of the open-source Quantum ESPRESSO suite
     for quantum simulation of materials; please cite
         "P. Giannozzi et al., J. Phys.:Condens. Matter 21 395502 (2009);
         "P. Giannozzi et al., J. Phys.:Condens. Matter 29 465901 (2017);
         "P. Giannozzi et al., J. Chem. Phys. 152 154105 (2020);
          URL http://www.quantum-espresso.org", 
     in publications or presentations arising from this work. More details at
     http://www.quantum-espresso.org/quote

     Parallel version (MPI), running on   128 processors

     MPI processes distributed on     1 nodes
     243029 MiB available memory on the printing compute node when the environment starts

     Waiting for input...
     Reading input from standard input

     Current dimensions of program PWSCF are:
     Max number of different atomic species (ntypx) = 10
     Max number of k-points (npk) =  40000
     Max angular momentum in pseudopotentials (lmaxx) =  4

     K-points division:     npool     =       4
     R & G space division:  proc/nbgrp/npool/nimage =      32
     Subspace diagonalization in iterative solution of the eigenvalue problem:
     a serial algorithm will be used


     Parallelization info
     --------------------
     sticks:   dense  smooth     PW     G-vecs:    dense   smooth      PW
     Min         158     158     46                 6225     6225    1003
     Max         159     159     47                 6228     6228    1006
     Sum        5067    5067   1499               199217   199217   32155

     Using Slab Decomposition



     bravais-lattice index     =            5
     lattice parameter (alat)  =      13.8788  a.u.
     unit-cell volume          =    1727.2042 (a.u.)^3
     number of atoms/cell      =           36
     number of atomic types    =            2
     number of electrons       =        96.00
     number of Kohn-Sham states=           48
     kinetic-energy cutoff     =      90.0000  Ry
     charge density cutoff     =     360.0000  Ry
     scf convergence threshold =      1.0E-07
     mixing beta               =       0.7000
     number of iterations used =            8  plain     mixing
     Exchange-correlation=  SLA  PW   PBE  PBE
                           (   1   4   3   4   0   0   0)

     celldm(1)=  13.878752  celldm(2)=   0.000000  celldm(3)=   0.000000
     celldm(4)=  -0.392337  celldm(5)=   0.000000  celldm(6)=   0.000000

     crystal axes: (cart. coord. in units of alat)
               a(1) = (   0.834367  -0.481722   0.267909 )  
               a(2) = (   0.000000   0.963444   0.267909 )  
               a(3) = (  -0.834367  -0.481722   0.267909 )  

     reciprocal axes: (cart. coord. in units 2 pi/alat)
               b(1) = (  0.599257 -0.345981  1.244203 )  
               b(2) = (  0.000000  0.691962  1.244203 )  
               b(3) = ( -0.599257 -0.345981  1.244203 )  


     PseudoPot. # 1 for H  read from file:
     ./H.pbe-van_ak.UPF
     MD5 check sum: 077eb6d537518a38cb46c6de387227b7
     Pseudo is Ultrasoft, Zval =  1.0
     Generated by new atomic code, or converted to UPF format
     Using radial grid of  615 points,  1 beta functions with: 
                l(1) =   0
     Q(r) pseudized with  8 coefficients,  rinner =    0.800

     PseudoPot. # 2 for O  read from file:
     ./O.pbe-van_ak.UPF
     MD5 check sum: 78c19812648e8988a0fe644b0f25305e
     Pseudo is Ultrasoft, Zval =  6.0
     Generated by new atomic code, or converted to UPF format
     Using radial grid of  737 points,  4 beta functions with: 
                l(1) =   0
                l(2) =   0
                l(3) =   1
                l(4) =   1
     Q(r) pseudized with  8 coefficients,  rinner =    0.800   0.800   0.800


     atomic species   valence    mass     pseudopotential
     H                 1.00     1.00800     H ( 1.00)
     O                 6.00    16.00000     O ( 1.00)

      6 Sym. Ops., with inversion, found



   Cartesian axes

     site n.     atom                  positions (alat units)
         1        O      tau(   1) = (  -0.4847673  -0.5197781   0.3083633  )
         2        O      tau(   2) = (   0.4847673   0.5197782   0.4953638  )
         3        O      tau(   3) = (   0.6925247  -0.1599317   0.3083633  )
         4        O      tau(   4) = (  -0.6925248   0.1599317   0.4953638  )
         5        O      tau(   5) = (  -0.2077574   0.6797099   0.3083633  )
         6        O      tau(   6) = (   0.2077574  -0.6797099   0.4953638  )
         7        O      tau(   7) = (   0.1218176   0.3323883   0.4179381  )
         8        O      tau(   8) = (  -0.1218176  -0.3323883   0.3857890  )
         9        O      tau(   9) = (  -0.3487655  -0.0606970   0.4179381  )
        10        O      tau(  10) = (   0.3487655   0.0606970   0.3857890  )
        11        O      tau(  11) = (   0.2269479  -0.2716913   0.4179381  )
        12        O      tau(  12) = (  -0.2269479   0.2716912   0.3857890  )
        13        H      tau(  13) = (  -0.5381668  -0.4032014   0.2796970  )
        14        H      tau(  14) = (   0.5381668   0.4032014   0.5240301  )
        15        H      tau(  15) = (   0.6182661  -0.2644654   0.2796970  )
        16        H      tau(  16) = (  -0.6182661   0.2644654   0.5240301  )
        17        H      tau(  17) = (  -0.0800993   0.6676668   0.2796970  )
        18        H      tau(  18) = (   0.0800993  -0.6676668   0.5240301  )
        19        H      tau(  19) = (  -0.4872704  -0.4817221   0.4326731  )
        20        H      tau(  20) = (   0.4872704   0.4817221   0.3710540  )
        21        H      tau(  21) = (   0.6608188  -0.1811275   0.4326731  )
        22        H      tau(  22) = (  -0.6608188   0.1811275   0.3710540  )
        23        H      tau(  23) = (  -0.1735484   0.6628496   0.4326731  )
        24        H      tau(  24) = (   0.1735484  -0.6628496   0.3710540  )
        25        H      tau(  25) = (   0.2703349  -0.1502973   0.4058822  )
        26        H      tau(  26) = (  -0.2703350   0.1502973   0.3978449  )
        27        H      tau(  27) = (  -0.0050062   0.3092656   0.4058822  )
        28        H      tau(  28) = (   0.0050062  -0.3092656   0.3978449  )
        29        H      tau(  29) = (  -0.2653287  -0.1589683   0.4058822  )
        30        H      tau(  30) = (   0.2653287   0.1589683   0.3978449  )
        31        H      tau(  31) = (   0.3178939  -0.3347969   0.3493534  )
        32        H      tau(  32) = (  -0.3178939   0.3347969   0.4543737  )
        33        H      tau(  33) = (   0.1309957   0.4427026   0.3493534  )
        34        H      tau(  34) = (  -0.1309956  -0.4427026   0.4543737  )
        35        H      tau(  35) = (  -0.4488895  -0.1079057   0.3493534  )
        36        H      tau(  36) = (   0.4488895   0.1079057   0.4543737  )

     number of k points=    14
                       cart. coord. in units 2pi/alat
        k(    1) = (   0.0000000   0.0000000   0.0000000), wk =   0.0312500
        k(    2) = (  -0.1498141  -0.0864952   0.3110508), wk =   0.1875000
        k(    3) = (   0.2996283   0.1729905  -0.6221017), wk =   0.0937500
        k(    4) = (  -0.1498141   0.0864952   0.6221017), wk =   0.1875000
        k(    5) = (   0.2996283   0.3459809  -0.3110508), wk =   0.1875000
        k(    6) = (   0.1498141   0.2594857   0.0000000), wk =   0.1875000
        k(    7) = (   0.2996283  -0.1729905  -1.2442034), wk =   0.0937500
        k(    8) = (   0.0000000   0.0000000   0.9331525), wk =   0.0625000
        k(    9) = (   0.4494424   0.2594857   0.0000000), wk =   0.1875000
        k(   10) = (   0.2996283   0.1729905   0.3110508), wk =   0.1875000
        k(   11) = (   0.4494424  -0.2594857  -0.9331525), wk =   0.1875000
        k(   12) = (   0.2996283  -0.3459809  -0.6221017), wk =   0.1875000
        k(   13) = (   0.0000000   0.0000000  -1.8663050), wk =   0.0312500
        k(   14) = (   0.2996283  -0.3459809   0.3110508), wk =   0.1875000

     Dense  grid:   199217 G-vectors     FFT dimensions: (  90,  90,  90)

     Estimated max dynamical RAM per process >      13.52 MB

     Estimated total dynamical RAM >       1.55 GB

     Initial potential from superposition of free atoms

     starting charge      95.9998, renormalised to      96.0000
     Starting wfcs are   72 randomized atomic wfcs

     total cpu time spent up to now is        1.1 secs

     per-process dynamical memory:    18.4 Mb

     Self-consistent Calculation

     iteration #  1     ecut=    90.00 Ry     beta= 0.70
     Davidson diagonalization with overlap
     ethr =  1.00E-02,  avg # of iterations =  2.0

     total cpu time spent up to now is        1.9 secs

     total energy              =    -412.12805004 Ry
     estimated scf accuracy    <       4.04262371 Ry

     iteration #  2     ecut=    90.00 Ry     beta= 0.70
     Davidson diagonalization with overlap
     ethr =  4.21E-03,  avg # of iterations =  3.0

     total cpu time spent up to now is        2.8 secs

     total energy              =    -413.43596018 Ry
     estimated scf accuracy    <       1.86029988 Ry

     iteration #  3     ecut=    90.00 Ry     beta= 0.70
     Davidson diagonalization with overlap
     ethr =  1.94E-03,  avg # of iterations =  2.0

     total cpu time spent up to now is        3.5 secs

     total energy              =    -413.66128665 Ry
     estimated scf accuracy    <       0.07679364 Ry

     iteration #  4     ecut=    90.00 Ry     beta= 0.70
     Davidson diagonalization with overlap
     ethr =  8.00E-05,  avg # of iterations =  4.0

     total cpu time spent up to now is        4.6 secs

     total energy              =    -413.71336534 Ry
     estimated scf accuracy    <       0.10125539 Ry

     iteration #  5     ecut=    90.00 Ry     beta= 0.70
     Davidson diagonalization with overlap
     ethr =  8.00E-05,  avg # of iterations =  2.0

     total cpu time spent up to now is        5.3 secs

     total energy              =    -413.71874525 Ry
     estimated scf accuracy    <       0.01494851 Ry

     iteration #  6     ecut=    90.00 Ry     beta= 0.70
     Davidson diagonalization with overlap
     ethr =  1.56E-05,  avg # of iterations =  2.0

     total cpu time spent up to now is        6.0 secs

     total energy              =    -413.72016227 Ry
     estimated scf accuracy    <       0.00252207 Ry

     iteration #  7     ecut=    90.00 Ry     beta= 0.70
     Davidson diagonalization with overlap
     ethr =  2.63E-06,  avg # of iterations =  3.0

     total cpu time spent up to now is        6.8 secs

     total energy              =    -413.72099774 Ry
     estimated scf accuracy    <       0.00000855 Ry

     iteration #  8     ecut=    90.00 Ry     beta= 0.70
     Davidson diagonalization with overlap
     ethr =  8.90E-09,  avg # of iterations =  7.0

     total cpu time spent up to now is        8.3 secs

     total energy              =    -413.72104149 Ry
     estimated scf accuracy    <       0.00002936 Ry

     iteration #  9     ecut=    90.00 Ry     beta= 0.70
     Davidson diagonalization with overlap
     ethr =  8.90E-09,  avg # of iterations =  2.0

     total cpu time spent up to now is        9.0 secs

     total energy              =    -413.72103813 Ry
     estimated scf accuracy    <       0.00001084 Ry

     iteration # 10     ecut=    90.00 Ry     beta= 0.70
     Davidson diagonalization with overlap
     ethr =  8.90E-09,  avg # of iterations =  2.0

     total cpu time spent up to now is        9.8 secs

     total energy              =    -413.72103912 Ry
     estimated scf accuracy    <       0.00000108 Ry

     iteration # 11     ecut=    90.00 Ry     beta= 0.70
     Davidson diagonalization with overlap
     ethr =  1.12E-09,  avg # of iterations =  3.0

     total cpu time spent up to now is       10.6 secs

     End of self-consistent calculation

          k = 0.0000 0.0000 0.0000 ( 24845 PWs)   bands (ev):

   -20.8563 -20.2121 -20.2121 -19.9090 -19.9090 -19.8844 -19.8844 -19.8521
   -19.8430 -19.4292 -19.4292 -19.0009  -7.9763  -7.7362  -7.6897  -7.6897
    -7.5315  -7.5315  -7.1124  -6.9255  -6.9255  -6.6944  -6.6944  -6.5158
    -6.4566  -5.3237  -5.3237  -4.6067  -4.6067  -4.5407  -4.5407  -4.1862
    -3.9363  -3.2268  -3.2268  -2.5130  -2.0195  -2.0195  -1.8864  -1.8057
    -1.7377  -1.7377  -1.5817  -1.5817  -1.5186  -1.4975  -1.4358  -1.4358

          k =-0.1498-0.0865 0.3111 ( 24856 PWs)   bands (ev):

   -20.7547 -20.2664 -20.1958 -20.1076 -20.0821 -19.9784 -19.7787 -19.7224
   -19.6446 -19.4402 -19.3820 -19.0833  -7.9076  -7.8154  -7.7272  -7.6624
    -7.5180  -7.4492  -7.1249  -6.9086  -6.8751  -6.7333  -6.5598  -6.5245
    -6.2587  -5.4984  -5.3303  -5.0211  -4.6456  -4.4592  -4.3184  -4.0432
    -3.9814  -3.2156  -3.1469  -2.6539  -2.1810  -2.0875  -1.9248  -1.8591
    -1.7857  -1.7299  -1.6833  -1.6154  -1.5219  -1.4836  -1.4258  -1.3680

          k = 0.2996 0.1730-0.6221 ( 24904 PWs)   bands (ev):

   -20.4957 -20.4791 -20.2512 -20.2094 -20.0836 -20.0688 -19.7093 -19.6842
   -19.4584 -19.4422 -19.3047 -19.2637  -7.8693  -7.8056  -7.7151  -7.6745
    -7.5337  -7.4559  -7.0644  -6.9113  -6.8537  -6.7445  -6.4493  -6.4470
    -5.9401  -5.7785  -5.3864  -5.2265  -4.6384  -4.5476  -4.2970  -4.1221
    -3.4871  -3.4012  -3.0766  -2.8374  -2.3267  -2.1220  -1.9590  -1.9327
    -1.8372  -1.7988  -1.6920  -1.6112  -1.6034  -1.4356  -1.4131  -1.3130

          k =-0.1498 0.0865 0.6221 ( 24900 PWs)   bands (ev):

   -20.5464 -20.3573 -20.3362 -20.1693 -20.1426 -20.0552 -19.7120 -19.5995
   -19.5488 -19.3876 -19.3635 -19.2320  -7.8800  -7.7803  -7.7588  -7.6349
    -7.5488  -7.4321  -7.0653  -6.9697  -6.8970  -6.5999  -6.5138  -6.4439
    -5.9476  -5.6950  -5.5700  -5.0142  -4.8008  -4.5915  -4.2130  -3.9771
    -3.7521  -3.1885  -3.1345  -2.8656  -2.2954  -2.1798  -1.9498  -1.8784
    -1.8415  -1.7850  -1.7238  -1.6234  -1.5837  -1.4451  -1.4220  -1.3044

          k = 0.2996 0.3460-0.3111 ( 24918 PWs)   bands (ev):

   -20.6219 -20.4038 -20.2407 -20.2271 -20.0912 -20.0107 -19.7097 -19.5799
   -19.5608 -19.4343 -19.3553 -19.1992  -7.8951  -7.8585  -7.6812  -7.6546
    -7.5746  -7.4590  -7.1236  -7.0448  -6.8888  -6.5617  -6.5258  -6.4265
    -6.1043  -5.7231  -5.4408  -5.0501  -4.9878  -4.3712  -4.1777  -3.8753
    -3.6094  -3.3630  -3.1305  -2.8245  -2.1637  -2.0818  -1.9704  -1.8852
    -1.8114  -1.7415  -1.6768  -1.6520  -1.5427  -1.5017  -1.4213  -1.2839

          k = 0.1498 0.2595 0.0000 ( 24893 PWs)   bands (ev):

   -20.7836 -20.3248 -20.2443 -20.0571 -20.0213 -19.9103 -19.8086 -19.7067
   -19.6555 -19.4470 -19.3945 -19.0667  -7.9546  -7.8350  -7.7151  -7.6479
    -7.5004  -7.4885  -7.2168  -7.0258  -6.7966  -6.6956  -6.5933  -6.4494
    -6.4333  -5.4615  -5.2990  -5.0199  -4.8989  -4.3191  -4.1504  -4.0341
    -3.8005  -3.3056  -3.2139  -2.5929  -2.0246  -1.9915  -1.9400  -1.8466
    -1.7952  -1.7586  -1.6068  -1.5815  -1.5414  -1.5226  -1.3900  -1.3692

          k = 0.2996-0.1730-1.2442 ( 24906 PWs)   bands (ev):

   -20.6104 -20.5519 -20.2706 -20.1189 -20.0260 -19.9319 -19.7373 -19.6747
   -19.5325 -19.4928 -19.2484 -19.2233  -7.9324  -7.8796  -7.7106  -7.6722
    -7.4845  -7.4628  -7.2304  -7.1301  -6.7905  -6.7215  -6.4942  -6.4312
    -5.9894  -5.9523  -5.3889  -5.1564  -4.7922  -4.4481  -3.9874  -3.7242
    -3.5956  -3.5742  -3.0418  -2.8238  -2.0520  -1.9779  -1.9419  -1.8956
    -1.8038  -1.7031  -1.6983  -1.5945  -1.5889  -1.5167  -1.3414  -1.3298

          k = 0.0000 0.0000 0.9332 ( 24890 PWs)   bands (ev):

   -20.4744 -20.4744 -20.3664 -20.2858 -20.0382 -20.0382 -19.6081 -19.6081
   -19.4565 -19.3745 -19.3550 -19.3550  -7.8605  -7.8605  -7.6907  -7.5947
    -7.5715  -7.5715  -7.1329  -7.0077  -7.0077  -6.4424  -6.4424  -6.3912
    -5.8555  -5.8555  -5.8435  -5.0718  -4.6899  -4.6899  -3.9263  -3.7232
    -3.7232  -3.2060  -3.2060  -3.0453  -2.0894  -2.0894  -1.9413  -1.8423
    -1.7796  -1.7796  -1.6916  -1.6282  -1.6282  -1.4829  -1.4829  -1.2529

          k = 0.4494 0.2595 0.0000 ( 24922 PWs)   bands (ev):

   -20.6486 -20.4207 -20.4055 -20.1187 -19.9516 -19.9219 -19.7552 -19.7358
   -19.5333 -19.3964 -19.3466 -19.1844  -7.9208  -7.8713  -7.7799  -7.5952
    -7.5233  -7.4559  -7.2456  -7.0663  -6.9114  -6.5896  -6.5149  -6.4649
    -6.1283  -5.6724  -5.5803  -5.1045  -4.7860  -4.4519  -3.9258  -3.8871
    -3.6435  -3.3237  -3.1784  -2.7961  -2.0242  -2.0143  -1.9246  -1.9004
    -1.8154  -1.7362  -1.6533  -1.6224  -1.5480  -1.4870  -1.4102  -1.3049

          k = 0.2996 0.1730 0.3111 ( 24888 PWs)   bands (ev):

   -20.6861 -20.3335 -20.2153 -20.1903 -20.0794 -19.9982 -19.7307 -19.6996
   -19.5895 -19.4298 -19.3472 -19.1348  -7.9170  -7.8494  -7.7520  -7.5980
    -7.5695  -7.3829  -7.1691  -6.9975  -6.7817  -6.6916  -6.6257  -6.4948
    -6.1368  -5.4891  -5.2837  -5.1894  -4.9491  -4.4948  -4.1465  -3.9059
    -3.7584  -3.2756  -3.1513  -2.6871  -2.1883  -2.1071  -1.9977  -1.9423
    -1.8089  -1.7582  -1.6577  -1.6111  -1.5013  -1.4559  -1.3785  -1.3634

          k = 0.4494-0.2595-0.9332 ( 24896 PWs)   bands (ev):

   -20.5117 -20.4965 -20.3150 -20.2147 -20.0610 -19.9615 -19.7835 -19.6719
   -19.4705 -19.4047 -19.3296 -19.2122  -7.9495  -7.8298  -7.7826  -7.5958
    -7.5388  -7.3657  -7.2326  -6.9629  -6.8082  -6.7400  -6.5473  -6.5000
    -5.8015  -5.7606  -5.3706  -5.2154  -4.9930  -4.6022  -4.0890  -3.7703
    -3.4521  -3.3632  -3.1878  -2.7753  -2.1738  -2.1317  -2.0860  -1.9456
    -1.8994  -1.7812  -1.5913  -1.5614  -1.5147  -1.4702  -1.3815  -1.3173

          k = 0.2996-0.3460-0.6221 ( 24950 PWs)   bands (ev):

   -20.4483 -20.4238 -20.2948 -20.2672 -20.1097 -20.1032 -19.6827 -19.6661
   -19.4591 -19.4433 -19.2992 -19.2511  -7.9632  -7.7292  -7.6958  -7.6650
    -7.6193  -7.3647  -7.0986  -6.9798  -6.7681  -6.7185  -6.5121  -6.5056
    -5.7599  -5.6183  -5.4164  -5.2843  -4.8973  -4.8501  -3.9944  -3.9126
    -3.4578  -3.4156  -3.1668  -2.7560  -2.3618  -2.1569  -2.0789  -1.9941
    -1.9149  -1.7387  -1.6516  -1.5994  -1.5633  -1.4165  -1.3927  -1.2926

          k = 0.0000 0.0000-1.8663 ( 24942 PWs)   bands (ev):

   -20.3962 -20.3402 -20.2581 -20.2581 -20.2418 -20.2418 -19.5843 -19.5843
   -19.5154 -19.5154 -19.2775 -19.2333  -8.0227  -7.6713  -7.6713  -7.6608
    -7.6608  -7.3401  -7.1535  -6.9857  -6.6494  -6.6494  -6.6165  -6.6165
    -5.5301  -5.3750  -5.2966  -5.2966  -5.2438  -5.2438  -3.7255  -3.7255
    -3.5122  -3.5122  -3.1648  -2.6974  -2.3979  -2.1658  -2.1658  -2.0501
    -2.0501  -1.6656  -1.6512  -1.5094  -1.5094  -1.4336  -1.4336  -1.2593

          k = 0.2996-0.3460 0.3111 ( 24918 PWs)   bands (ev):

   -20.6222 -20.3992 -20.2655 -20.2091 -20.0865 -20.0104 -19.7140 -19.6024
   -19.5207 -19.4609 -19.3412 -19.2026  -7.9116  -7.8220  -7.7225  -7.6366
    -7.5568  -7.4633  -7.1862  -7.0032  -6.8626  -6.6089  -6.4807  -6.4520
    -6.0886  -5.6433  -5.5610  -5.0885  -4.8390  -4.4497  -4.2660  -3.7624
    -3.5728  -3.3537  -3.2312  -2.7881  -2.1770  -2.0411  -1.9872  -1.8835
    -1.8264  -1.7445  -1.6829  -1.6477  -1.5643  -1.4629  -1.4210  -1.2948

     highest occupied level (ev):    -1.2529

!    total energy              =    -413.72103952 Ry
     estimated scf accuracy    <          4.0E-09 Ry

     The total energy is the sum of the following terms:
     one-electron contribution =    -269.71406048 Ry
     hartree contribution      =     172.36689416 Ry
     xc contribution           =    -102.87324589 Ry
     ewald contribution        =    -213.50062730 Ry

     convergence has been achieved in  11 iterations

     Forces acting on atoms (cartesian axes, Ry/au):

     atom    1 type  2   force =     0.00357013   -0.03942636   -0.03970747
     atom    2 type  2   force =    -0.00357013    0.03942636    0.03970747
     atom    3 type  2   force =     0.03235916    0.02280500   -0.03970747
     atom    4 type  2   force =    -0.03235916   -0.02280500    0.03970747
     atom    5 type  2   force =    -0.03592929    0.01662135   -0.03970747
     atom    6 type  2   force =     0.03592929   -0.01662135    0.03970747
     atom    7 type  2   force =     0.05331270   -0.03259440    0.03118527
     atom    8 type  2   force =    -0.05331270    0.03259440   -0.03118527
     atom    9 type  2   force =     0.00157123    0.06246736    0.03118527
     atom   10 type  2   force =    -0.00157123   -0.06246736   -0.03118527
     atom   11 type  2   force =    -0.05488393   -0.02987295    0.03118527
     atom   12 type  2   force =     0.05488393    0.02987295   -0.03118527
     atom   13 type  1   force =    -0.03560870    0.05626559   -0.08393819
     atom   14 type  1   force =     0.03560870   -0.05626559    0.08393819
     atom   15 type  1   force =    -0.03092308   -0.05897084   -0.08393819
     atom   16 type  1   force =     0.03092308    0.05897084    0.08393819
     atom   17 type  1   force =     0.06653178    0.00270524   -0.08393819
     atom   18 type  1   force =    -0.06653178   -0.00270524    0.08393819
     atom   19 type  1   force =     0.03367323   -0.02505723    0.11050102
     atom   20 type  1   force =    -0.03367323    0.02505723   -0.11050102
     atom   21 type  1   force =     0.00486358    0.04169049    0.11050102
     atom   22 type  1   force =    -0.00486358   -0.04169049   -0.11050102
     atom   23 type  1   force =    -0.03853681   -0.01663326    0.11050102
     atom   24 type  1   force =     0.03853681    0.01663326   -0.11050102
     atom   25 type  1   force =     0.01511531    0.09585137    0.00718200
     atom   26 type  1   force =    -0.01511531   -0.09585137   -0.00718200
     atom   27 type  1   force =    -0.09056738   -0.03483544    0.00718200
     atom   28 type  1   force =     0.09056738    0.03483544   -0.00718200
     atom   29 type  1   force =     0.07545207   -0.06101593    0.00718200
     atom   30 type  1   force =    -0.07545207    0.06101593   -0.00718200
     atom   31 type  1   force =     0.03720677   -0.06499088   -0.03509019
     atom   32 type  1   force =    -0.03720677    0.06499088    0.03509019
     atom   33 type  1   force =     0.03768036    0.06471745   -0.03509019
     atom   34 type  1   force =    -0.03768036   -0.06471745    0.03509019
     atom   35 type  1   force =    -0.07488714    0.00027343   -0.03509019
     atom   36 type  1   force =     0.07488714   -0.00027343    0.03509019

     Total force =     0.546515     Total SCF correction =     0.000114


     Computing stress (Cartesian axis) and pressure

          total   stress  (Ry/bohr**3)                   (kbar)     P=      154.33
   0.00098659  -0.00000000  -0.00000000          145.13       -0.00       -0.00
   0.00000000   0.00098659   0.00000000            0.00      145.13        0.00
   0.00000000   0.00000000   0.00117421            0.00        0.00      172.73


     Writing all to output data dir ./iceII/iceII.save/ :
     XML data file, charge density, pseudopotentials, collected wavefunctions

     init_run     :      0.86s CPU      0.91s WALL (       1 calls)
     electrons    :      9.38s CPU      9.57s WALL (       1 calls)
     forces       :      0.11s CPU      0.11s WALL (       1 calls)
     stress       :      0.71s CPU      0.74s WALL (       1 calls)

     Called by init_run:
     wfcinit      :      0.32s CPU      0.33s WALL (       1 calls)
     potinit      :      0.03s CPU      0.05s WALL (       1 calls)
     hinit0       :      0.38s CPU      0.39s WALL (       1 calls)

     Called by electrons:
     c_bands      :      8.01s CPU      8.13s WALL (      11 calls)
     sum_band     :      1.05s CPU      1.07s WALL (      11 calls)
     v_of_rho     :      0.21s CPU      0.23s WALL (      12 calls)
     newd         :      0.04s CPU      0.05s WALL (      12 calls)
     mix_rho      :      0.03s CPU      0.03s WALL (      11 calls)

     Called by c_bands:
     init_us_2    :      0.11s CPU      0.12s WALL (     100 calls)
     cegterg      :      7.73s CPU      7.80s WALL (      44 calls)

     Called by *egterg:
     cdiaghg      :      0.67s CPU      0.67s WALL (     172 calls)
     h_psi        :      6.14s CPU      6.20s WALL (     176 calls)
     s_psi        :      0.22s CPU      0.23s WALL (     176 calls)
     g_psi        :      0.01s CPU      0.01s WALL (     128 calls)

     Called by h_psi:
     h_psi:calbec :      0.40s CPU      0.40s WALL (     176 calls)
     vloc_psi     :      5.46s CPU      5.51s WALL (     176 calls)
     add_vuspsi   :      0.24s CPU      0.24s WALL (     176 calls)

     General routines
     calbec       :      0.54s CPU      0.54s WALL (     240 calls)
     fft          :      0.48s CPU      0.48s WALL (     140 calls)
     ffts         :      0.01s CPU      0.01s WALL (      11 calls)
     fftw         :      5.62s CPU      5.68s WALL (   16194 calls)

     Parallel routines

     PWSCF        :     11.37s CPU     11.93s WALL


   This run was terminated on:  18: 8:31  21Mar2026            

=------------------------------------------------------------------------------=
   JOB DONE.
=------------------------------------------------------------------------------=
