
     Program PWSCF v.7.3.1 starts on 21Mar2026 at 18:10:19 

     This program is part of the open-source Quantum ESPRESSO suite
     for quantum simulation of materials; please cite
         "P. Giannozzi et al., J. Phys.:Condens. Matter 21 395502 (2009);
         "P. Giannozzi et al., J. Phys.:Condens. Matter 29 465901 (2017);
         "P. Giannozzi et al., J. Chem. Phys. 152 154105 (2020);
          URL http://www.quantum-espresso.org", 
     in publications or presentations arising from this work. More details at
     http://www.quantum-espresso.org/quote

     Parallel version (MPI), running on   128 processors

     MPI processes distributed on     1 nodes
     243006 MiB available memory on the printing compute node when the environment starts

     Waiting for input...
     Reading input from standard input

     Current dimensions of program PWSCF are:
     Max number of different atomic species (ntypx) = 10
     Max number of k-points (npk) =  40000
     Max angular momentum in pseudopotentials (lmaxx) =  4

     K-points division:     npool     =       4
     R & G space division:  proc/nbgrp/npool/nimage =      32
     Subspace diagonalization in iterative solution of the eigenvalue problem:
     a serial algorithm will be used


     Parallelization info
     --------------------
     sticks:   dense  smooth     PW     G-vecs:    dense   smooth      PW
     Min         158     158     47                 6264     6264    1011
     Max         159     159     48                 6268     6268    1012
     Sum        5085    5085   1511               200519   200519   32365

     Using Slab Decomposition



     bravais-lattice index     =            5
     lattice parameter (alat)  =      13.9082  a.u.
     unit-cell volume          =    1738.2055 (a.u.)^3
     number of atoms/cell      =           36
     number of atomic types    =            2
     number of electrons       =        96.00
     number of Kohn-Sham states=           48
     kinetic-energy cutoff     =      90.0000  Ry
     charge density cutoff     =     360.0000  Ry
     scf convergence threshold =      1.0E-07
     mixing beta               =       0.7000
     number of iterations used =            8  plain     mixing
     Exchange-correlation=  SLA  PW   PBE  PBE
                           (   1   4   3   4   0   0   0)

     celldm(1)=  13.908157  celldm(2)=   0.000000  celldm(3)=   0.000000
     celldm(4)=  -0.392337  celldm(5)=   0.000000  celldm(6)=   0.000000

     crystal axes: (cart. coord. in units of alat)
               a(1) = (   0.834367  -0.481722   0.267909 )  
               a(2) = (   0.000000   0.963444   0.267909 )  
               a(3) = (  -0.834367  -0.481722   0.267909 )  

     reciprocal axes: (cart. coord. in units 2 pi/alat)
               b(1) = (  0.599257 -0.345981  1.244203 )  
               b(2) = (  0.000000  0.691962  1.244203 )  
               b(3) = ( -0.599257 -0.345981  1.244203 )  


     PseudoPot. # 1 for H  read from file:
     ./H.pbe-van_ak.UPF
     MD5 check sum: 077eb6d537518a38cb46c6de387227b7
     Pseudo is Ultrasoft, Zval =  1.0
     Generated by new atomic code, or converted to UPF format
     Using radial grid of  615 points,  1 beta functions with: 
                l(1) =   0
     Q(r) pseudized with  8 coefficients,  rinner =    0.800

     PseudoPot. # 2 for O  read from file:
     ./O.pbe-van_ak.UPF
     MD5 check sum: 78c19812648e8988a0fe644b0f25305e
     Pseudo is Ultrasoft, Zval =  6.0
     Generated by new atomic code, or converted to UPF format
     Using radial grid of  737 points,  4 beta functions with: 
                l(1) =   0
                l(2) =   0
                l(3) =   1
                l(4) =   1
     Q(r) pseudized with  8 coefficients,  rinner =    0.800   0.800   0.800


     atomic species   valence    mass     pseudopotential
     H                 1.00     1.00800     H ( 1.00)
     O                 6.00    16.00000     O ( 1.00)

      6 Sym. Ops., with inversion, found



   Cartesian axes

     site n.     atom                  positions (alat units)
         1        O      tau(   1) = (  -0.4847673  -0.5197781   0.3083633  )
         2        O      tau(   2) = (   0.4847673   0.5197782   0.4953638  )
         3        O      tau(   3) = (   0.6925247  -0.1599317   0.3083633  )
         4        O      tau(   4) = (  -0.6925248   0.1599317   0.4953638  )
         5        O      tau(   5) = (  -0.2077574   0.6797099   0.3083633  )
         6        O      tau(   6) = (   0.2077574  -0.6797099   0.4953638  )
         7        O      tau(   7) = (   0.1218176   0.3323883   0.4179381  )
         8        O      tau(   8) = (  -0.1218176  -0.3323883   0.3857890  )
         9        O      tau(   9) = (  -0.3487655  -0.0606970   0.4179381  )
        10        O      tau(  10) = (   0.3487655   0.0606970   0.3857890  )
        11        O      tau(  11) = (   0.2269479  -0.2716913   0.4179381  )
        12        O      tau(  12) = (  -0.2269479   0.2716912   0.3857890  )
        13        H      tau(  13) = (  -0.5381668  -0.4032014   0.2796970  )
        14        H      tau(  14) = (   0.5381668   0.4032014   0.5240301  )
        15        H      tau(  15) = (   0.6182661  -0.2644654   0.2796970  )
        16        H      tau(  16) = (  -0.6182661   0.2644654   0.5240301  )
        17        H      tau(  17) = (  -0.0800993   0.6676668   0.2796970  )
        18        H      tau(  18) = (   0.0800993  -0.6676668   0.5240301  )
        19        H      tau(  19) = (  -0.4872704  -0.4817221   0.4326731  )
        20        H      tau(  20) = (   0.4872704   0.4817221   0.3710540  )
        21        H      tau(  21) = (   0.6608188  -0.1811275   0.4326731  )
        22        H      tau(  22) = (  -0.6608188   0.1811275   0.3710540  )
        23        H      tau(  23) = (  -0.1735484   0.6628496   0.4326731  )
        24        H      tau(  24) = (   0.1735484  -0.6628496   0.3710540  )
        25        H      tau(  25) = (   0.2703349  -0.1502973   0.4058822  )
        26        H      tau(  26) = (  -0.2703350   0.1502973   0.3978449  )
        27        H      tau(  27) = (  -0.0050062   0.3092656   0.4058822  )
        28        H      tau(  28) = (   0.0050062  -0.3092656   0.3978449  )
        29        H      tau(  29) = (  -0.2653287  -0.1589683   0.4058822  )
        30        H      tau(  30) = (   0.2653287   0.1589683   0.3978449  )
        31        H      tau(  31) = (   0.3178939  -0.3347969   0.3493534  )
        32        H      tau(  32) = (  -0.3178939   0.3347969   0.4543737  )
        33        H      tau(  33) = (   0.1309957   0.4427026   0.3493534  )
        34        H      tau(  34) = (  -0.1309956  -0.4427026   0.4543737  )
        35        H      tau(  35) = (  -0.4488895  -0.1079057   0.3493534  )
        36        H      tau(  36) = (   0.4488895   0.1079057   0.4543737  )

     number of k points=    14
                       cart. coord. in units 2pi/alat
        k(    1) = (   0.0000000   0.0000000   0.0000000), wk =   0.0312500
        k(    2) = (  -0.1498141  -0.0864952   0.3110508), wk =   0.1875000
        k(    3) = (   0.2996283   0.1729905  -0.6221017), wk =   0.0937500
        k(    4) = (  -0.1498141   0.0864952   0.6221017), wk =   0.1875000
        k(    5) = (   0.2996283   0.3459809  -0.3110508), wk =   0.1875000
        k(    6) = (   0.1498141   0.2594857   0.0000000), wk =   0.1875000
        k(    7) = (   0.2996283  -0.1729905  -1.2442034), wk =   0.0937500
        k(    8) = (   0.0000000   0.0000000   0.9331525), wk =   0.0625000
        k(    9) = (   0.4494424   0.2594857   0.0000000), wk =   0.1875000
        k(   10) = (   0.2996283   0.1729905   0.3110508), wk =   0.1875000
        k(   11) = (   0.4494424  -0.2594857  -0.9331525), wk =   0.1875000
        k(   12) = (   0.2996283  -0.3459809  -0.6221017), wk =   0.1875000
        k(   13) = (   0.0000000   0.0000000  -1.8663050), wk =   0.0312500
        k(   14) = (   0.2996283  -0.3459809   0.3110508), wk =   0.1875000

     Dense  grid:   200519 G-vectors     FFT dimensions: (  90,  90,  90)

     Estimated max dynamical RAM per process >      13.59 MB

     Estimated total dynamical RAM >       1.55 GB

     Initial potential from superposition of free atoms

     starting charge      95.9998, renormalised to      96.0000
     Starting wfcs are   72 randomized atomic wfcs

     total cpu time spent up to now is        1.1 secs

     per-process dynamical memory:    18.2 Mb

     Self-consistent Calculation

     iteration #  1     ecut=    90.00 Ry     beta= 0.70
     Davidson diagonalization with overlap
     ethr =  1.00E-02,  avg # of iterations =  2.0

     total cpu time spent up to now is        1.9 secs

     total energy              =    -412.14237872 Ry
     estimated scf accuracy    <       4.02763069 Ry

     iteration #  2     ecut=    90.00 Ry     beta= 0.70
     Davidson diagonalization with overlap
     ethr =  4.20E-03,  avg # of iterations =  3.0

     total cpu time spent up to now is        2.8 secs

     total energy              =    -413.44464746 Ry
     estimated scf accuracy    <       1.87440690 Ry

     iteration #  3     ecut=    90.00 Ry     beta= 0.70
     Davidson diagonalization with overlap
     ethr =  1.95E-03,  avg # of iterations =  2.0

     total cpu time spent up to now is        3.6 secs

     total energy              =    -413.67236020 Ry
     estimated scf accuracy    <       0.07735549 Ry

     iteration #  4     ecut=    90.00 Ry     beta= 0.70
     Davidson diagonalization with overlap
     ethr =  8.06E-05,  avg # of iterations =  4.0

     total cpu time spent up to now is        4.6 secs

     total energy              =    -413.72484661 Ry
     estimated scf accuracy    <       0.10239207 Ry

     iteration #  5     ecut=    90.00 Ry     beta= 0.70
     Davidson diagonalization with overlap
     ethr =  8.06E-05,  avg # of iterations =  2.0

     total cpu time spent up to now is        5.3 secs

     total energy              =    -413.73033346 Ry
     estimated scf accuracy    <       0.01503269 Ry

     iteration #  6     ecut=    90.00 Ry     beta= 0.70
     Davidson diagonalization with overlap
     ethr =  1.57E-05,  avg # of iterations =  2.0

     total cpu time spent up to now is        6.0 secs

     total energy              =    -413.73175453 Ry
     estimated scf accuracy    <       0.00254390 Ry

     iteration #  7     ecut=    90.00 Ry     beta= 0.70
     Davidson diagonalization with overlap
     ethr =  2.65E-06,  avg # of iterations =  3.0

     total cpu time spent up to now is        6.9 secs

     total energy              =    -413.73261375 Ry
     estimated scf accuracy    <       0.00000689 Ry

     iteration #  8     ecut=    90.00 Ry     beta= 0.70
     Davidson diagonalization with overlap
     ethr =  7.17E-09,  avg # of iterations =  6.8

     total cpu time spent up to now is        8.4 secs

     total energy              =    -413.73265687 Ry
     estimated scf accuracy    <       0.00003347 Ry

     iteration #  9     ecut=    90.00 Ry     beta= 0.70
     Davidson diagonalization with overlap
     ethr =  7.17E-09,  avg # of iterations =  2.0

     total cpu time spent up to now is        9.1 secs

     total energy              =    -413.73265297 Ry
     estimated scf accuracy    <       0.00001243 Ry

     iteration # 10     ecut=    90.00 Ry     beta= 0.70
     Davidson diagonalization with overlap
     ethr =  7.17E-09,  avg # of iterations =  2.0

     total cpu time spent up to now is        9.9 secs

     total energy              =    -413.73265415 Ry
     estimated scf accuracy    <       0.00000120 Ry

     iteration # 11     ecut=    90.00 Ry     beta= 0.70
     Davidson diagonalization with overlap
     ethr =  1.25E-09,  avg # of iterations =  3.0

     total cpu time spent up to now is       10.8 secs

     End of self-consistent calculation

          k = 0.0000 0.0000 0.0000 ( 25019 PWs)   bands (ev):

   -20.8573 -20.2206 -20.2206 -19.9208 -19.9208 -19.8960 -19.8960 -19.8643
   -19.8557 -19.4463 -19.4463 -19.0227  -7.9866  -7.7482  -7.7009  -7.7009
    -7.5461  -7.5461  -7.1268  -6.9415  -6.9415  -6.7107  -6.7107  -6.5339
    -6.4743  -5.3507  -5.3507  -4.6388  -4.6388  -4.5726  -4.5726  -4.2197
    -3.9726  -3.2654  -3.2654  -2.5531  -2.0518  -2.0518  -1.9202  -1.8394
    -1.7722  -1.7722  -1.6167  -1.6167  -1.5555  -1.5344  -1.4732  -1.4732

          k =-0.1498-0.0865 0.3111 ( 25014 PWs)   bands (ev):

   -20.7567 -20.2744 -20.2044 -20.1172 -20.0917 -19.9892 -19.7917 -19.7360
   -19.6591 -19.4571 -19.3995 -19.1041  -7.9185  -7.8267  -7.7388  -7.6749
    -7.5324  -7.4637  -7.1387  -6.9239  -6.8912  -6.7494  -6.5778  -6.5424
    -6.2790  -5.5244  -5.3577  -5.0501  -4.6768  -4.4920  -4.3513  -4.0780
    -4.0166  -3.2542  -3.1859  -2.6936  -2.2116  -2.1189  -1.9581  -1.8925
    -1.8197  -1.7649  -1.7183  -1.6505  -1.5582  -1.5199  -1.4630  -1.4056

          k = 0.2996 0.1730-0.6221 ( 25078 PWs)   bands (ev):

   -20.5005 -20.4845 -20.2591 -20.2184 -20.0932 -20.0787 -19.7228 -19.6984
   -19.4749 -19.4591 -19.3229 -19.2827  -7.8807  -7.8173  -7.7269  -7.6872
    -7.5476  -7.4703  -7.0785  -6.9265  -6.8696  -6.7606  -6.4683  -6.4662
    -5.9635  -5.8026  -5.4138  -5.2539  -4.6697  -4.5792  -4.3306  -4.1563
    -3.5253  -3.4377  -3.1160  -2.8767  -2.3558  -2.1527  -1.9919  -1.9655
    -1.8708  -1.8332  -1.7270  -1.6469  -1.6387  -1.4722  -1.4502  -1.3510

          k =-0.1498 0.0865 0.6221 ( 25050 PWs)   bands (ev):

   -20.5508 -20.3638 -20.3432 -20.1783 -20.1518 -20.0653 -19.7257 -19.6144
   -19.5644 -19.4050 -19.3811 -19.2513  -7.8913  -7.7921  -7.7706  -7.6475
    -7.5628  -7.4470  -7.0795  -6.9840  -6.9122  -6.6177  -6.5323  -6.4631
    -5.9709  -5.7197  -5.5958  -5.0433  -4.8315  -4.6231  -4.2469  -4.0119
    -3.7878  -3.2267  -3.1742  -2.9044  -2.3247  -2.2100  -1.9825  -1.9124
    -1.8753  -1.8191  -1.7586  -1.6586  -1.6193  -1.4817  -1.4589  -1.3424

          k = 0.2996 0.3460-0.3111 ( 25063 PWs)   bands (ev):

   -20.6254 -20.4099 -20.2488 -20.2351 -20.1013 -20.0212 -19.7237 -19.5949
   -19.5764 -19.4513 -19.3731 -19.2187  -7.9061  -7.8700  -7.6935  -7.6670
    -7.5880  -7.4730  -7.1368  -7.0587  -6.9038  -6.5796  -6.5440  -6.4458
    -6.1263  -5.7481  -5.4674  -5.0787  -5.0172  -4.4049  -4.2116  -3.9107
    -3.6464  -3.4006  -3.1694  -2.8639  -2.1949  -2.1133  -2.0029  -1.9183
    -1.8453  -1.7761  -1.7114  -1.6874  -1.5789  -1.5379  -1.4584  -1.3223

          k = 0.1498 0.2595 0.0000 ( 25043 PWs)   bands (ev):

   -20.7853 -20.3317 -20.2522 -20.0674 -20.0319 -19.9221 -19.8212 -19.7206
   -19.6698 -19.4638 -19.4120 -19.0877  -7.9652  -7.8460  -7.7268  -7.6606
    -7.5143  -7.5028  -7.2291  -7.0403  -6.8125  -6.7119  -6.6111  -6.4677
    -6.4527  -5.4882  -5.3270  -5.0487  -4.9279  -4.3526  -4.1854  -4.0686
    -3.8371  -3.3439  -3.2521  -2.6336  -2.0567  -2.0242  -1.9731  -1.8797
    -1.8288  -1.7927  -1.6421  -1.6175  -1.5774  -1.5592  -1.4276  -1.4070

          k = 0.2996-0.1730-1.2442 ( 25066 PWs)   bands (ev):

   -20.6139 -20.5563 -20.2781 -20.1288 -20.0363 -19.9438 -19.7506 -19.6892
   -19.5481 -19.5091 -19.2674 -19.2427  -7.9430  -7.8909  -7.7232  -7.6849
    -7.4980  -7.4769  -7.2421  -7.1430  -6.8059  -6.7378  -6.5123  -6.4501
    -6.0133  -5.9760  -5.4161  -5.1841  -4.8217  -4.4815  -4.0240  -3.7610
    -3.6329  -3.6099  -3.0808  -2.8640  -2.0838  -2.0107  -1.9756  -1.9281
    -1.8371  -1.7383  -1.7328  -1.6302  -1.6243  -1.5532  -1.3796  -1.3678

          k = 0.0000 0.0000 0.9332 ( 25070 PWs)   bands (ev):

   -20.4795 -20.4795 -20.3727 -20.2937 -20.0489 -20.0489 -19.6231 -19.6231
   -19.4728 -19.3925 -19.3727 -19.3727  -7.8720  -7.8720  -7.7034  -7.6066
    -7.5849  -7.5849  -7.1462  -7.0217  -7.0217  -6.4614  -6.4614  -6.4107
    -5.8792  -5.8792  -5.8677  -5.1007  -4.7214  -4.7214  -3.9614  -3.7592
    -3.7592  -3.2446  -3.2446  -3.0832  -2.1212  -2.1212  -1.9740  -1.8766
    -1.8136  -1.8136  -1.7271  -1.6633  -1.6633  -1.5193  -1.5193  -1.2915

          k = 0.4494 0.2595 0.0000 ( 25059 PWs)   bands (ev):

   -20.6517 -20.4263 -20.4115 -20.1286 -19.9628 -19.9339 -19.7684 -19.7496
   -19.5489 -19.4137 -19.3646 -19.2042  -7.9316  -7.8824  -7.7919  -7.6084
    -7.5369  -7.4695  -7.2575  -7.0797  -6.9258  -6.6070  -6.5332  -6.4832
    -6.1509  -5.6980  -5.6065  -5.1324  -4.8163  -4.4848  -3.9618  -3.9229
    -3.6807  -3.3617  -3.2165  -2.8363  -2.0564  -2.0466  -1.9583  -1.9330
    -1.8490  -1.7705  -1.6882  -1.6576  -1.5842  -1.5237  -1.4477  -1.3432

          k = 0.2996 0.1730 0.3111 ( 25084 PWs)   bands (ev):

   -20.6889 -20.3406 -20.2233 -20.1994 -20.0890 -20.0088 -19.7444 -19.7133
   -19.6049 -19.4466 -19.3653 -19.1551  -7.9280  -7.8607  -7.7638  -7.6108
    -7.5833  -7.3981  -7.1819  -7.0120  -6.7976  -6.7081  -6.6429  -6.5134
    -6.1587  -5.5157  -5.3115  -5.2177  -4.9777  -4.5275  -4.1812  -3.9421
    -3.7942  -3.3145  -3.1897  -2.7275  -2.2192  -2.1380  -2.0302  -1.9747
    -1.8426  -1.7923  -1.6928  -1.6468  -1.5380  -1.4928  -1.4161  -1.4009

          k = 0.4494-0.2595-0.9332 ( 25080 PWs)   bands (ev):

   -20.5162 -20.5016 -20.3219 -20.2236 -20.0709 -19.9723 -19.7966 -19.6862
   -19.4872 -19.4218 -19.3477 -19.2318  -7.9604  -7.8414  -7.7944  -7.6090
    -7.5524  -7.3807  -7.2448  -6.9771  -6.8237  -6.7560  -6.5652  -6.5186
    -5.8262  -5.7854  -5.3980  -5.2431  -5.0220  -4.6341  -4.1244  -3.8070
    -3.4893  -3.4023  -3.2265  -2.8149  -2.2053  -2.1627  -2.1170  -1.9777
    -1.9321  -1.8150  -1.6270  -1.5975  -1.5513  -1.5070  -1.4191  -1.3553

          k = 0.2996-0.3460-0.6221 ( 25112 PWs)   bands (ev):

   -20.4537 -20.4299 -20.3021 -20.2753 -20.1189 -20.1126 -19.6967 -19.6804
   -19.4757 -19.4603 -19.3174 -19.2704  -7.9740  -7.7412  -7.7080  -7.6778
    -7.6325  -7.3800  -7.1127  -6.9937  -6.7843  -6.7349  -6.5306  -6.5241
    -5.7849  -5.6438  -5.4433  -5.3115  -4.9268  -4.8804  -4.0301  -3.9488
    -3.4949  -3.4526  -3.2067  -2.7958  -2.3907  -2.1872  -2.1102  -2.0260
    -1.9478  -1.7731  -1.6866  -1.6350  -1.5994  -1.4536  -1.4301  -1.3308

          k = 0.0000 0.0000-1.8663 ( 25068 PWs)   bands (ev):

   -20.4025 -20.3481 -20.2653 -20.2653 -20.2497 -20.2497 -19.5992 -19.5992
   -19.5318 -19.5318 -19.2960 -19.2528  -8.0331  -7.6844  -7.6844  -7.6734
    -7.6734  -7.3547  -7.1676  -6.9991  -6.6665  -6.6665  -6.6337  -6.6337
    -5.5572  -5.4010  -5.3232  -5.3232  -5.2728  -5.2728  -3.7632  -3.7632
    -3.5489  -3.5489  -3.2051  -2.7375  -2.4267  -2.1958  -2.1958  -2.0811
    -2.0811  -1.7007  -1.6860  -1.5461  -1.5461  -1.4705  -1.4705  -1.2978

          k = 0.2996-0.3460 0.3111 ( 25063 PWs)   bands (ev):

   -20.6257 -20.4053 -20.2730 -20.2175 -20.0967 -20.0209 -19.7279 -19.6171
   -19.5370 -19.4773 -19.3592 -19.2221  -7.9226  -7.8335  -7.7348  -7.6497
    -7.5697  -7.4774  -7.1988  -7.0175  -6.8776  -6.6266  -6.4991  -6.4711
    -6.1110  -5.6688  -5.5866  -5.1177  -4.8685  -4.4828  -4.2996  -3.7986
    -3.6104  -3.3912  -3.2687  -2.8283  -2.2079  -2.0732  -2.0197  -1.9165
    -1.8598  -1.7792  -1.7174  -1.6833  -1.6004  -1.4994  -1.4581  -1.3331

     highest occupied level (ev):    -1.2915

!    total energy              =    -413.73265466 Ry
     estimated scf accuracy    <       0.00000002 Ry

     The total energy is the sum of the following terms:
     one-electron contribution =    -270.51914278 Ry
     hartree contribution      =     172.64758402 Ry
     xc contribution           =    -102.81184413 Ry
     ewald contribution        =    -213.04925177 Ry

     convergence has been achieved in  11 iterations

     Forces acting on atoms (cartesian axes, Ry/au):

     atom    1 type  2   force =     0.00199179   -0.03494189   -0.03670507
     atom    2 type  2   force =    -0.00199179    0.03494189    0.03670507
     atom    3 type  2   force =     0.02926467    0.01919588   -0.03670507
     atom    4 type  2   force =    -0.02926467   -0.01919588    0.03670507
     atom    5 type  2   force =    -0.03125646    0.01574601   -0.03670507
     atom    6 type  2   force =     0.03125646   -0.01574601    0.03670507
     atom    7 type  2   force =     0.04970114   -0.03012869    0.02879663
     atom    8 type  2   force =    -0.04970114    0.03012869   -0.02879663
     atom    9 type  2   force =     0.00124164    0.05810680    0.02879663
     atom   10 type  2   force =    -0.00124164   -0.05810680   -0.02879663
     atom   11 type  2   force =    -0.05094278   -0.02797810    0.02879663
     atom   12 type  2   force =     0.05094278    0.02797810   -0.02879663
     atom   13 type  1   force =    -0.03395025    0.05274650   -0.08258987
     atom   14 type  1   force =     0.03395025   -0.05274650    0.08258987
     atom   15 type  1   force =    -0.02870468   -0.05577502   -0.08258987
     atom   16 type  1   force =     0.02870468    0.05577502    0.08258987
     atom   17 type  1   force =     0.06265493    0.00302853   -0.08258987
     atom   18 type  1   force =    -0.06265493   -0.00302853    0.08258987
     atom   19 type  1   force =     0.03353365   -0.02594048    0.10622516
     atom   20 type  1   force =    -0.03353365    0.02594048   -0.10622516
     atom   21 type  1   force =     0.00569829    0.04201123    0.10622516
     atom   22 type  1   force =    -0.00569829   -0.04201123   -0.10622516
     atom   23 type  1   force =    -0.03923194   -0.01607075    0.10622516
     atom   24 type  1   force =     0.03923194    0.01607075   -0.10622516
     atom   25 type  1   force =     0.01385988    0.09167090    0.00742863
     atom   26 type  1   force =    -0.01385988   -0.09167090   -0.00742863
     atom   27 type  1   force =    -0.08631927   -0.03383244    0.00742863
     atom   28 type  1   force =     0.08631927    0.03383244   -0.00742863
     atom   29 type  1   force =     0.07245939   -0.05783846    0.00742863
     atom   30 type  1   force =    -0.07245939    0.05783846   -0.00742863
     atom   31 type  1   force =     0.03436912   -0.06264820   -0.03290131
     atom   32 type  1   force =    -0.03436912    0.06264820    0.03290131
     atom   33 type  1   force =     0.03707037    0.06108863   -0.03290131
     atom   34 type  1   force =    -0.03707037   -0.06108863    0.03290131
     atom   35 type  1   force =    -0.07143949    0.00155957   -0.03290131
     atom   36 type  1   force =     0.07143949   -0.00155957    0.03290131

     Total force =     0.522240     Total SCF correction =     0.000078


     Computing stress (Cartesian axis) and pressure

          total   stress  (Ry/bohr**3)                   (kbar)     P=      146.01
   0.00092910  -0.00000000  -0.00000000          136.68       -0.00       -0.00
   0.00000000   0.00092910   0.00000000            0.00      136.68        0.00
  -0.00000000   0.00000000   0.00111944           -0.00        0.00      164.67


     Writing all to output data dir ./iceII/iceII.save/ :
     XML data file, charge density, pseudopotentials, collected wavefunctions

     init_run     :      0.88s CPU      0.91s WALL (       1 calls)
     electrons    :      9.52s CPU      9.71s WALL (       1 calls)
     forces       :      0.11s CPU      0.12s WALL (       1 calls)
     stress       :      0.73s CPU      0.74s WALL (       1 calls)

     Called by init_run:
     wfcinit      :      0.32s CPU      0.33s WALL (       1 calls)
     potinit      :      0.03s CPU      0.05s WALL (       1 calls)
     hinit0       :      0.39s CPU      0.40s WALL (       1 calls)

     Called by electrons:
     c_bands      :      8.17s CPU      8.25s WALL (      11 calls)
     sum_band     :      1.05s CPU      1.08s WALL (      11 calls)
     v_of_rho     :      0.22s CPU      0.23s WALL (      12 calls)
     newd         :      0.04s CPU      0.04s WALL (      12 calls)
     mix_rho      :      0.03s CPU      0.03s WALL (      11 calls)

     Called by c_bands:
     init_us_2    :      0.11s CPU      0.12s WALL (     100 calls)
     cegterg      :      7.97s CPU      8.03s WALL (      44 calls)

     Called by *egterg:
     cdiaghg      :      0.67s CPU      0.67s WALL (     171 calls)
     h_psi        :      6.34s CPU      6.40s WALL (     175 calls)
     s_psi        :      0.24s CPU      0.24s WALL (     175 calls)
     g_psi        :      0.01s CPU      0.01s WALL (     127 calls)

     Called by h_psi:
     h_psi:calbec :      0.41s CPU      0.41s WALL (     175 calls)
     vloc_psi     :      5.66s CPU      5.70s WALL (     175 calls)
     add_vuspsi   :      0.25s CPU      0.25s WALL (     175 calls)

     General routines
     calbec       :      0.54s CPU      0.55s WALL (     239 calls)
     fft          :      0.48s CPU      0.49s WALL (     140 calls)
     ffts         :      0.01s CPU      0.01s WALL (      11 calls)
     fftw         :      5.82s CPU      5.88s WALL (   16562 calls)

     Parallel routines

     PWSCF        :     11.60s CPU     12.10s WALL


   This run was terminated on:  18:10:31  21Mar2026            

=------------------------------------------------------------------------------=
   JOB DONE.
=------------------------------------------------------------------------------=
