
     Program PWSCF v.7.3.1 starts on 23Mar2026 at 17:50:43 

     This program is part of the open-source Quantum ESPRESSO suite
     for quantum simulation of materials; please cite
         "P. Giannozzi et al., J. Phys.:Condens. Matter 21 395502 (2009);
         "P. Giannozzi et al., J. Phys.:Condens. Matter 29 465901 (2017);
         "P. Giannozzi et al., J. Chem. Phys. 152 154105 (2020);
          URL http://www.quantum-espresso.org", 
     in publications or presentations arising from this work. More details at
     http://www.quantum-espresso.org/quote

     Parallel version (MPI), running on   128 processors

     MPI processes distributed on     1 nodes
     242941 MiB available memory on the printing compute node when the environment starts

     Waiting for input...
     Reading input from standard input

     Current dimensions of program PWSCF are:
     Max number of different atomic species (ntypx) = 10
     Max number of k-points (npk) =  40000
     Max angular momentum in pseudopotentials (lmaxx) =  4

     K-points division:     npool     =       4
     R & G space division:  proc/nbgrp/npool/nimage =      32
     Subspace diagonalization in iterative solution of the eigenvalue problem:
     a serial algorithm will be used


     Parallelization info
     --------------------
     sticks:   dense  smooth     PW     G-vecs:    dense   smooth      PW
     Min         158     158     47                 6264     6264    1011
     Max         159     159     48                 6268     6268    1012
     Sum        5085    5085   1511               200519   200519   32365

     Using Slab Decomposition



     bravais-lattice index     =            5
     lattice parameter (alat)  =      13.9082  a.u.
     unit-cell volume          =    1738.2055 (a.u.)^3
     number of atoms/cell      =           36
     number of atomic types    =            2
     number of electrons       =        96.00
     number of Kohn-Sham states=           48
     kinetic-energy cutoff     =      90.0000  Ry
     charge density cutoff     =     360.0000  Ry
     scf convergence threshold =      1.0E-07
     mixing beta               =       0.7000
     number of iterations used =            8  plain     mixing
     Exchange-correlation=  SLA  PW   PBE  PBE
                           (   1   4   3   4   0   0   0)

     celldm(1)=  13.908157  celldm(2)=   0.000000  celldm(3)=   0.000000
     celldm(4)=  -0.392337  celldm(5)=   0.000000  celldm(6)=   0.000000

     crystal axes: (cart. coord. in units of alat)
               a(1) = (   0.834367  -0.481722   0.267909 )  
               a(2) = (   0.000000   0.963444   0.267909 )  
               a(3) = (  -0.834367  -0.481722   0.267909 )  

     reciprocal axes: (cart. coord. in units 2 pi/alat)
               b(1) = (  0.599257 -0.345981  1.244203 )  
               b(2) = (  0.000000  0.691962  1.244203 )  
               b(3) = ( -0.599257 -0.345981  1.244203 )  


     PseudoPot. # 1 for H  read from file:
     ./H.pbe-van_ak.UPF
     MD5 check sum: 077eb6d537518a38cb46c6de387227b7
     Pseudo is Ultrasoft, Zval =  1.0
     Generated by new atomic code, or converted to UPF format
     Using radial grid of  615 points,  1 beta functions with: 
                l(1) =   0
     Q(r) pseudized with  8 coefficients,  rinner =    0.800

     PseudoPot. # 2 for O  read from file:
     ./O.pbe-van_ak.UPF
     MD5 check sum: 78c19812648e8988a0fe644b0f25305e
     Pseudo is Ultrasoft, Zval =  6.0
     Generated by new atomic code, or converted to UPF format
     Using radial grid of  737 points,  4 beta functions with: 
                l(1) =   0
                l(2) =   0
                l(3) =   1
                l(4) =   1
     Q(r) pseudized with  8 coefficients,  rinner =    0.800   0.800   0.800


     atomic species   valence    mass     pseudopotential
     H                 1.00     1.00800     H ( 1.00)
     O                 6.00    16.00000     O ( 1.00)

      6 Sym. Ops., with inversion, found



   Cartesian axes

     site n.     atom                  positions (alat units)
         1        O      tau(   1) = (  -0.4910119  -0.5205722   0.3052394  )
         2        O      tau(   2) = (   0.4910119   0.5205722   0.4984877  )
         3        O      tau(   3) = (   0.6963347  -0.1649427   0.3052394  )
         4        O      tau(   4) = (  -0.6963347   0.1649427   0.4984877  )
         5        O      tau(   5) = (  -0.2053228   0.6855149   0.3052394  )
         6        O      tau(   6) = (   0.2053228  -0.6855149   0.4984877  )
         7        O      tau(   7) = (   0.1229870   0.3303028   0.4196306  )
         8        O      tau(   8) = (  -0.1229870  -0.3303028   0.3840965  )
         9        O      tau(   9) = (  -0.3475441  -0.0586415   0.4196306  )
        10        O      tau(  10) = (   0.3475441   0.0586415   0.3840965  )
        11        O      tau(  11) = (   0.2245571  -0.2716613   0.4196306  )
        12        O      tau(  12) = (  -0.2245571   0.2716612   0.3840965  )
        13        H      tau(  13) = (  -0.5446961  -0.4126715   0.2597134  )
        14        H      tau(  14) = (   0.5446961   0.4126715   0.5440137  )
        15        H      tau(  15) = (   0.6297321  -0.2653849   0.2597134  )
        16        H      tau(  16) = (  -0.6297321   0.2653849   0.5440137  )
        17        H      tau(  17) = (  -0.0850360   0.6780564   0.2597134  )
        18        H      tau(  18) = (   0.0850360  -0.6780564   0.5440137  )
        19        H      tau(  19) = (  -0.4726389  -0.4926041   0.4288765  )
        20        H      tau(  20) = (   0.4726389   0.4926042   0.3748506  )
        21        H      tau(  21) = (   0.6629272  -0.1630152   0.4288765  )
        22        H      tau(  22) = (  -0.6629272   0.1630152   0.3748506  )
        23        H      tau(  23) = (  -0.1902883   0.6556194   0.4288765  )
        24        H      tau(  24) = (   0.1902883  -0.6556194   0.3748506  )
        25        H      tau(  25) = (   0.2676988  -0.1507235   0.4151121  )
        26        H      tau(  26) = (  -0.2676988   0.1507234   0.3886151  )
        27        H      tau(  27) = (  -0.0033191   0.3071957   0.4151121  )
        28        H      tau(  28) = (   0.0033191  -0.3071957   0.3886151  )
        29        H      tau(  29) = (  -0.2643797  -0.1564722   0.4151121  )
        30        H      tau(  30) = (   0.2643797   0.1564723   0.3886151  )
        31        H      tau(  31) = (   0.3102941  -0.3416444   0.3555952  )
        32        H      tau(  32) = (  -0.3102941   0.3416444   0.4481319  )
        33        H      tau(  33) = (   0.1407257   0.4395448   0.3555952  )
        34        H      tau(  34) = (  -0.1407257  -0.4395448   0.4481319  )
        35        H      tau(  35) = (  -0.4510198  -0.0979003   0.3555952  )
        36        H      tau(  36) = (   0.4510198   0.0979003   0.4481319  )

     number of k points=    14
                       cart. coord. in units 2pi/alat
        k(    1) = (   0.0000000   0.0000000   0.0000000), wk =   0.0312500
        k(    2) = (  -0.1498141  -0.0864952   0.3110508), wk =   0.1875000
        k(    3) = (   0.2996283   0.1729905  -0.6221017), wk =   0.0937500
        k(    4) = (  -0.1498141   0.0864952   0.6221017), wk =   0.1875000
        k(    5) = (   0.2996283   0.3459809  -0.3110508), wk =   0.1875000
        k(    6) = (   0.1498141   0.2594857   0.0000000), wk =   0.1875000
        k(    7) = (   0.2996283  -0.1729905  -1.2442034), wk =   0.0937500
        k(    8) = (   0.0000000   0.0000000   0.9331525), wk =   0.0625000
        k(    9) = (   0.4494424   0.2594857   0.0000000), wk =   0.1875000
        k(   10) = (   0.2996283   0.1729905   0.3110508), wk =   0.1875000
        k(   11) = (   0.4494424  -0.2594857  -0.9331525), wk =   0.1875000
        k(   12) = (   0.2996283  -0.3459809  -0.6221017), wk =   0.1875000
        k(   13) = (   0.0000000   0.0000000  -1.8663050), wk =   0.0312500
        k(   14) = (   0.2996283  -0.3459809   0.3110508), wk =   0.1875000

     Dense  grid:   200519 G-vectors     FFT dimensions: (  90,  90,  90)

     Estimated max dynamical RAM per process >      13.59 MB

     Estimated total dynamical RAM >       1.55 GB

     Initial potential from superposition of free atoms

     starting charge      95.9998, renormalised to      96.0000
     Starting wfcs are   72 randomized atomic wfcs

     total cpu time spent up to now is        1.1 secs

     per-process dynamical memory:    18.3 Mb

     Self-consistent Calculation

     iteration #  1     ecut=    90.00 Ry     beta= 0.70
     Davidson diagonalization with overlap
     ethr =  1.00E-02,  avg # of iterations =  2.0

     total cpu time spent up to now is        1.9 secs

     total energy              =    -412.14577231 Ry
     estimated scf accuracy    <       4.24394115 Ry

     iteration #  2     ecut=    90.00 Ry     beta= 0.70
     Davidson diagonalization with overlap
     ethr =  4.42E-03,  avg # of iterations =  3.0

     total cpu time spent up to now is        2.9 secs

     total energy              =    -413.51545383 Ry
     estimated scf accuracy    <       1.90339703 Ry

     iteration #  3     ecut=    90.00 Ry     beta= 0.70
     Davidson diagonalization with overlap
     ethr =  1.98E-03,  avg # of iterations =  2.0

     total cpu time spent up to now is        3.6 secs

     total energy              =    -413.74879701 Ry
     estimated scf accuracy    <       0.07491532 Ry

     iteration #  4     ecut=    90.00 Ry     beta= 0.70
     Davidson diagonalization with overlap
     ethr =  7.80E-05,  avg # of iterations =  4.0

     total cpu time spent up to now is        4.7 secs

     total energy              =    -413.79877251 Ry
     estimated scf accuracy    <       0.09966826 Ry

     iteration #  5     ecut=    90.00 Ry     beta= 0.70
     Davidson diagonalization with overlap
     ethr =  7.80E-05,  avg # of iterations =  2.0

     total cpu time spent up to now is        5.4 secs

     total energy              =    -413.80495967 Ry
     estimated scf accuracy    <       0.01173343 Ry

     iteration #  6     ecut=    90.00 Ry     beta= 0.70
     Davidson diagonalization with overlap
     ethr =  1.22E-05,  avg # of iterations =  2.2

     total cpu time spent up to now is        6.2 secs

     total energy              =    -413.80726375 Ry
     estimated scf accuracy    <       0.00075089 Ry

     iteration #  7     ecut=    90.00 Ry     beta= 0.70
     Davidson diagonalization with overlap
     ethr =  7.82E-07,  avg # of iterations =  4.0

     total cpu time spent up to now is        7.3 secs

     total energy              =    -413.80790484 Ry
     estimated scf accuracy    <       0.00052457 Ry

     iteration #  8     ecut=    90.00 Ry     beta= 0.70
     Davidson diagonalization with overlap
     ethr =  5.46E-07,  avg # of iterations =  2.0

     total cpu time spent up to now is        7.9 secs

     total energy              =    -413.80793977 Ry
     estimated scf accuracy    <       0.00004405 Ry

     iteration #  9     ecut=    90.00 Ry     beta= 0.70
     Davidson diagonalization with overlap
     ethr =  4.59E-08,  avg # of iterations =  2.0

     total cpu time spent up to now is        8.7 secs

     total energy              =    -413.80795399 Ry
     estimated scf accuracy    <       0.00000038 Ry

     iteration # 10     ecut=    90.00 Ry     beta= 0.70
     Davidson diagonalization with overlap
     ethr =  3.92E-10,  avg # of iterations =  4.6

     total cpu time spent up to now is        9.9 secs

     total energy              =    -413.80795468 Ry
     estimated scf accuracy    <       0.00000054 Ry

     iteration # 11     ecut=    90.00 Ry     beta= 0.70
     Davidson diagonalization with overlap
     ethr =  3.92E-10,  avg # of iterations =  3.0

     total cpu time spent up to now is       10.8 secs

     total energy              =    -413.80795488 Ry
     estimated scf accuracy    <       0.00000015 Ry

     iteration # 12     ecut=    90.00 Ry     beta= 0.70
     Davidson diagonalization with overlap
     ethr =  1.52E-10,  avg # of iterations =  1.0

     total cpu time spent up to now is       11.4 secs

     End of self-consistent calculation

          k = 0.0000 0.0000 0.0000 ( 25019 PWs)   bands (ev):

   -20.8166 -20.1851 -20.1851 -19.9092 -19.9092 -19.8818 -19.8352 -19.8352
   -19.7999 -19.4178 -19.4178 -18.9851  -8.1719  -8.0272  -8.0272  -8.0252
    -7.8885  -7.8885  -7.5369  -7.5291  -7.5291  -7.5266  -7.5266  -7.4635
    -6.3612  -5.0362  -5.0362  -4.3757  -4.3757  -4.0918  -4.0918  -3.9953
    -3.7796  -3.0193  -3.0193  -2.2378  -2.0485  -2.0485  -1.9326  -1.8076
    -1.8076  -1.7424  -1.6576  -1.6576  -1.6409  -1.4844  -1.4687  -1.4687

          k =-0.1498-0.0865 0.3111 ( 25014 PWs)   bands (ev):

   -20.7190 -20.2307 -20.1665 -20.1008 -20.0509 -19.9559 -19.7778 -19.7042
   -19.6182 -19.4314 -19.3734 -19.0637  -8.1267  -8.0658  -8.0268  -7.9967
    -7.8856  -7.8407  -7.6346  -7.5836  -7.5421  -7.4727  -7.4218  -7.3827
    -6.1293  -5.2292  -5.0600  -4.7105  -4.4894  -4.1960  -3.9002  -3.7906
    -3.5893  -3.0236  -2.9432  -2.3849  -2.1552  -2.0849  -1.9619  -1.9064
    -1.8713  -1.7923  -1.6841  -1.6380  -1.5843  -1.5472  -1.4786  -1.4618

          k = 0.2996 0.1730-0.6221 ( 25078 PWs)   bands (ev):

   -20.4752 -20.4493 -20.1998 -20.1782 -20.0693 -20.0401 -19.7104 -19.6661
   -19.4875 -19.4126 -19.2882 -19.2305  -8.0858  -8.0671  -8.0186  -7.9922
    -7.8969  -7.8180  -7.6442  -7.6047  -7.5504  -7.4861  -7.3305  -7.3093
    -5.6985  -5.5361  -5.0836  -5.0463  -4.4748  -4.4133  -3.7373  -3.6710
    -3.1555  -3.1542  -2.9247  -2.6408  -2.2329  -2.1186  -1.9917  -1.9892
    -1.9051  -1.7672  -1.7623  -1.6716  -1.6387  -1.5415  -1.4454  -1.4437

          k =-0.1498 0.0865 0.6221 ( 25050 PWs)   bands (ev):

   -20.5237 -20.3211 -20.3031 -20.1400 -20.1181 -20.0234 -19.7108 -19.5947
   -19.5408 -19.3823 -19.3508 -19.1984  -8.0785  -8.0586  -8.0358  -8.0077
    -7.8805  -7.8008  -7.6410  -7.6118  -7.6072  -7.4023  -7.3602  -7.3203
    -5.7296  -5.3935  -5.3325  -4.8111  -4.6167  -4.4007  -3.7624  -3.4948
    -3.3925  -3.0205  -2.9119  -2.6786  -2.2282  -2.1450  -1.9961  -1.9388
    -1.8689  -1.8302  -1.7596  -1.6575  -1.6337  -1.5512  -1.4697  -1.4181

          k = 0.2996 0.3460-0.3111 ( 25063 PWs)   bands (ev):

   -20.5858 -20.3620 -20.2582 -20.1805 -20.0595 -19.9710 -19.7313 -19.5939
   -19.4913 -19.4523 -19.3233 -19.1820  -8.0916  -8.0816  -8.0032  -7.9742
    -7.8942  -7.8333  -7.7296  -7.6910  -7.6131  -7.4114  -7.3881  -7.3220
    -5.7880  -5.3812  -5.1292  -4.8409  -4.8214  -4.1675  -3.6989  -3.5568
    -3.4005  -3.0869  -2.9025  -2.5863  -2.1367  -2.0832  -2.0068  -1.9196
    -1.8674  -1.7696  -1.7362  -1.6992  -1.6057  -1.5941  -1.4429  -1.3768

          k = 0.1498 0.2595 0.0000 ( 25043 PWs)   bands (ev):

   -20.7440 -20.2922 -20.2140 -20.0585 -19.9905 -19.8972 -19.7944 -19.7081
   -19.6131 -19.4305 -19.3816 -19.0523  -8.1413  -8.0591  -8.0261  -7.9819
    -7.8880  -7.8708  -7.7180  -7.6442  -7.5686  -7.4686  -7.4469  -7.3966
    -6.1360  -5.1075  -5.0133  -4.7357  -4.6999  -4.0146  -3.8465  -3.7050
    -3.6262  -3.0557  -3.0134  -2.3096  -2.0481  -2.0198  -1.9899  -1.8826
    -1.8234  -1.7782  -1.6992  -1.6757  -1.6082  -1.5333  -1.4303  -1.4094

          k = 0.2996-0.1730-1.2442 ( 25066 PWs)   bands (ev):

   -20.5666 -20.5208 -20.2364 -20.1245 -19.9860 -19.9324 -19.6998 -19.6992
   -19.4842 -19.4768 -19.2465 -19.2017  -8.1042  -8.0649  -8.0018  -7.9687
    -7.8764  -7.8681  -7.8285  -7.7185  -7.6004  -7.4618  -7.4254  -7.3561
    -5.6114  -5.5794  -5.0612  -4.9825  -4.5973  -4.1619  -3.6478  -3.5764
    -3.3534  -3.2132  -2.8141  -2.5671  -2.0571  -2.0150  -1.9721  -1.9295
    -1.8474  -1.7697  -1.7530  -1.6693  -1.6373  -1.5638  -1.3820  -1.3773

          k = 0.0000 0.0000 0.9332 ( 25070 PWs)   bands (ev):

   -20.4311 -20.4311 -20.3552 -20.2789 -20.0015 -20.0015 -19.6226 -19.6226
   -19.4351 -19.3439 -19.3439 -19.3238  -8.0757  -8.0757  -8.0219  -7.9614
    -7.8855  -7.8855  -7.7650  -7.6753  -7.6753  -7.3444  -7.3444  -7.3011
    -5.4784  -5.4784  -5.4072  -5.0032  -4.5227  -4.5227  -3.4323  -3.4323
    -3.3283  -2.9855  -2.9855  -2.8524  -2.0834  -2.0834  -1.9569  -1.9214
    -1.8327  -1.8327  -1.7277  -1.6854  -1.6854  -1.5274  -1.5274  -1.3417

          k = 0.4494 0.2595 0.0000 ( 25059 PWs)   bands (ev):

   -20.6090 -20.3797 -20.3758 -20.1273 -19.9250 -19.8976 -19.7602 -19.7196
   -19.4903 -19.3893 -19.3317 -19.1696  -8.0968  -8.0587  -8.0309  -7.9350
    -7.9120  -7.8549  -7.8224  -7.6986  -7.6453  -7.4386  -7.3999  -7.3797
    -5.7628  -5.2633  -5.2030  -5.0389  -4.5518  -4.1650  -3.7230  -3.6032
    -3.2789  -3.0766  -2.9669  -2.5317  -2.0349  -2.0169  -1.9935  -1.9241
    -1.8602  -1.7884  -1.7402  -1.6997  -1.5889  -1.5320  -1.4512  -1.3457

          k = 0.2996 0.1730 0.3111 ( 25084 PWs)   bands (ev):

   -20.6507 -20.2952 -20.1925 -20.1717 -20.0597 -19.9716 -19.7335 -19.6734
   -19.5726 -19.4194 -19.3354 -19.1153  -8.1039  -8.0665  -8.0280  -7.9526
    -7.8987  -7.8086  -7.7270  -7.5834  -7.5508  -7.5237  -7.4549  -7.3586
    -5.9307  -5.2101  -5.1416  -4.7753  -4.7069  -4.1659  -3.8007  -3.6146
    -3.5676  -3.0212  -2.9268  -2.4296  -2.1753  -2.0717  -2.0153  -1.9721
    -1.8900  -1.7869  -1.7076  -1.6706  -1.5859  -1.5433  -1.4545  -1.3963

          k = 0.4494-0.2595-0.9332 ( 25080 PWs)   bands (ev):

   -20.4726 -20.4653 -20.2798 -20.2058 -20.0430 -19.9338 -19.7792 -19.6423
   -19.4678 -19.3889 -19.3250 -19.1858  -8.0789  -8.0514  -8.0224  -7.9286
    -7.8888  -7.8208  -7.7521  -7.6682  -7.5800  -7.5265  -7.4336  -7.3747
    -5.5832  -5.3920  -5.1889  -4.9773  -4.6599  -4.1680  -3.8827  -3.5540
    -3.2502  -3.0150  -2.9602  -2.5381  -2.1683  -2.0928  -2.0453  -1.9790
    -1.9438  -1.8272  -1.6981  -1.6553  -1.5892  -1.5512  -1.4503  -1.3421

          k = 0.2996-0.3460-0.6221 ( 25112 PWs)   bands (ev):

   -20.4241 -20.3973 -20.2508 -20.2492 -20.0793 -20.0687 -19.6806 -19.6594
   -19.4526 -19.4290 -19.3073 -19.2071  -8.0845  -8.0316  -7.9977  -7.9675
    -7.9285  -7.7590  -7.6883  -7.6410  -7.5457  -7.4984  -7.3814  -7.3682
    -5.5240  -5.4782  -5.1368  -5.0671  -4.5406  -4.4853  -3.6755  -3.5774
    -3.2167  -3.1904  -2.8663  -2.6208  -2.2477  -2.1182  -2.0596  -2.0382
    -1.9149  -1.8402  -1.6933  -1.6582  -1.6407  -1.5284  -1.5015  -1.3415

          k = 0.0000 0.0000-1.8663 ( 25068 PWs)   bands (ev):

   -20.3533 -20.3293 -20.2529 -20.2529 -20.1885 -20.1885 -19.5679 -19.5679
   -19.5091 -19.5091 -19.3038 -19.1804  -8.0835  -7.9713  -7.9713  -7.9508
    -7.9508  -7.7478  -7.7298  -7.6483  -7.5095  -7.5095  -7.4499  -7.4499
    -5.5151  -5.3339  -4.9260  -4.9260  -4.7942  -4.7942  -3.4117  -3.4117
    -3.3437  -3.3437  -2.8303  -2.6000  -2.1864  -2.1117  -2.1117  -2.0956
    -2.0956  -1.7933  -1.6561  -1.5900  -1.5900  -1.5700  -1.5700  -1.2834

          k = 0.2996-0.3460 0.3111 ( 25063 PWs)   bands (ev):

   -20.5854 -20.3676 -20.2377 -20.1983 -20.0566 -19.9724 -19.7260 -19.5806
   -19.5445 -19.3957 -19.3450 -19.1812  -8.1001  -8.0640  -8.0148  -7.9427
    -7.9222  -7.8404  -7.7486  -7.6685  -7.6104  -7.4087  -7.3823  -7.3311
    -5.7938  -5.3456  -5.2014  -4.8128  -4.7536  -4.2458  -3.7993  -3.4168
    -3.3005  -3.1350  -3.0109  -2.5443  -2.1509  -2.0455  -2.0068  -1.9236
    -1.8760  -1.7811  -1.7313  -1.7069  -1.6438  -1.5441  -1.4497  -1.3783

     highest occupied level (ev):    -1.2834

!    total energy              =    -413.80795482 Ry
     estimated scf accuracy    <       0.00000009 Ry

     The total energy is the sum of the following terms:
     one-electron contribution =    -269.86575064 Ry
     hartree contribution      =     172.32342596 Ry
     xc contribution           =    -103.07186192 Ry
     ewald contribution        =    -213.19376822 Ry

     convergence has been achieved in  12 iterations

     Forces acting on atoms (cartesian axes, Ry/au):

     atom    1 type  2   force =     0.02927861   -0.10001580   -0.06064346
     atom    2 type  2   force =    -0.02927861    0.10001580    0.06064346
     atom    3 type  2   force =     0.07197692    0.07536392   -0.06064346
     atom    4 type  2   force =    -0.07197692   -0.07536392    0.06064346
     atom    5 type  2   force =    -0.10125553    0.02465188   -0.06064346
     atom    6 type  2   force =     0.10125553   -0.02465188    0.06064346
     atom    7 type  2   force =     0.07986017   -0.06173768    0.04914400
     atom    8 type  2   force =    -0.07986017    0.06173768   -0.04914400
     atom    9 type  2   force =     0.01353632    0.10002978    0.04914400
     atom   10 type  2   force =    -0.01353632   -0.10002978   -0.04914400
     atom   11 type  2   force =    -0.09339649   -0.03829210    0.04914400
     atom   12 type  2   force =     0.09339649    0.03829210   -0.04914400
     atom   13 type  1   force =    -0.04131236    0.08092032   -0.04051210
     atom   14 type  1   force =     0.04131236   -0.08092032    0.04051210
     atom   15 type  1   force =    -0.04942287   -0.07623771   -0.04051210
     atom   16 type  1   force =     0.04942287    0.07623771    0.04051210
     atom   17 type  1   force =     0.09073523   -0.00468261   -0.04051210
     atom   18 type  1   force =    -0.09073523    0.00468261    0.04051210
     atom   19 type  1   force =     0.01892548    0.01736593    0.10119436
     atom   20 type  1   force =    -0.01892548   -0.01736593   -0.10119436
     atom   21 type  1   force =    -0.02450208    0.00770698    0.10119436
     atom   22 type  1   force =     0.02450208   -0.00770698   -0.10119436
     atom   23 type  1   force =     0.00557660   -0.02507291    0.10119436
     atom   24 type  1   force =    -0.00557660    0.02507291   -0.10119436
     atom   25 type  1   force =     0.03015605    0.09767094   -0.00044673
     atom   26 type  1   force =    -0.03015605   -0.09767094    0.00044673
     atom   27 type  1   force =    -0.09966354   -0.02271956   -0.00044673
     atom   28 type  1   force =     0.09966354    0.02271956    0.00044673
     atom   29 type  1   force =     0.06950749   -0.07495137   -0.00044673
     atom   30 type  1   force =    -0.06950749    0.07495137    0.00044673
     atom   31 type  1   force =     0.06778416   -0.06244242   -0.05226164
     atom   32 type  1   force =    -0.06778416    0.06244242    0.05226164
     atom   33 type  1   force =     0.02018464    0.08992401   -0.05226164
     atom   34 type  1   force =    -0.02018464   -0.08992401    0.05226164
     atom   35 type  1   force =    -0.08796880   -0.02748159   -0.05226164
     atom   36 type  1   force =     0.08796880    0.02748159    0.05226164

     Total force =     0.646279     Total SCF correction =     0.000197


     Computing stress (Cartesian axis) and pressure

          total   stress  (Ry/bohr**3)                   (kbar)     P=      168.97
   0.00115780  -0.00000000  -0.00000000          170.32       -0.00       -0.00
   0.00000000   0.00115780   0.00000000            0.00      170.32        0.00
  -0.00000000   0.00000000   0.00113040           -0.00        0.00      166.29


     Writing all to output data dir ./iceII/iceII.save/ :
     XML data file, charge density, pseudopotentials, collected wavefunctions

     init_run     :      0.88s CPU      0.93s WALL (       1 calls)
     electrons    :     10.01s CPU     10.27s WALL (       1 calls)
     forces       :      0.10s CPU      0.11s WALL (       1 calls)
     stress       :      0.73s CPU      0.75s WALL (       1 calls)

     Called by init_run:
     wfcinit      :      0.32s CPU      0.33s WALL (       1 calls)
     potinit      :      0.04s CPU      0.05s WALL (       1 calls)
     hinit0       :      0.39s CPU      0.40s WALL (       1 calls)

     Called by electrons:
     c_bands      :      8.52s CPU      8.69s WALL (      12 calls)
     sum_band     :      1.17s CPU      1.19s WALL (      12 calls)
     v_of_rho     :      0.22s CPU      0.26s WALL (      13 calls)
     newd         :      0.04s CPU      0.05s WALL (      13 calls)
     mix_rho      :      0.03s CPU      0.03s WALL (      12 calls)

     Called by c_bands:
     init_us_2    :      0.11s CPU      0.13s WALL (     108 calls)
     cegterg      :      8.34s CPU      8.47s WALL (      48 calls)

     Called by *egterg:
     cdiaghg      :      0.69s CPU      0.69s WALL (     176 calls)
     h_psi        :      6.66s CPU      6.75s WALL (     180 calls)
     s_psi        :      0.23s CPU      0.24s WALL (     180 calls)
     g_psi        :      0.02s CPU      0.02s WALL (     128 calls)

     Called by h_psi:
     h_psi:calbec :      0.43s CPU      0.44s WALL (     180 calls)
     vloc_psi     :      5.93s CPU      6.01s WALL (     180 calls)
     add_vuspsi   :      0.25s CPU      0.26s WALL (     180 calls)

     General routines
     calbec       :      0.58s CPU      0.58s WALL (     248 calls)
     fft          :      0.49s CPU      0.49s WALL (     151 calls)
     ffts         :      0.01s CPU      0.01s WALL (      12 calls)
     fftw         :      6.20s CPU      6.27s WALL (   17282 calls)

     Parallel routines

     PWSCF        :     12.02s CPU     12.62s WALL


   This run was terminated on:  17:50:55  23Mar2026            

=------------------------------------------------------------------------------=
   JOB DONE.
=------------------------------------------------------------------------------=
