
     Program PWSCF v.7.3.1 starts on 23Mar2026 at 17:51: 3 

     This program is part of the open-source Quantum ESPRESSO suite
     for quantum simulation of materials; please cite
         "P. Giannozzi et al., J. Phys.:Condens. Matter 21 395502 (2009);
         "P. Giannozzi et al., J. Phys.:Condens. Matter 29 465901 (2017);
         "P. Giannozzi et al., J. Chem. Phys. 152 154105 (2020);
          URL http://www.quantum-espresso.org", 
     in publications or presentations arising from this work. More details at
     http://www.quantum-espresso.org/quote

     Parallel version (MPI), running on   128 processors

     MPI processes distributed on     1 nodes
     243017 MiB available memory on the printing compute node when the environment starts

     Waiting for input...
     Reading input from standard input

     Current dimensions of program PWSCF are:
     Max number of different atomic species (ntypx) = 10
     Max number of k-points (npk) =  40000
     Max angular momentum in pseudopotentials (lmaxx) =  4

     K-points division:     npool     =       4
     R & G space division:  proc/nbgrp/npool/nimage =      32
     Subspace diagonalization in iterative solution of the eigenvalue problem:
     a serial algorithm will be used


     Parallelization info
     --------------------
     sticks:   dense  smooth     PW     G-vecs:    dense   smooth      PW
     Min         159     159     47                 6302     6302    1016
     Max         160     160     48                 6305     6305    1017
     Sum        5117    5117   1515               201731   201731   32533

     Using Slab Decomposition



     bravais-lattice index     =            5
     lattice parameter (alat)  =      13.9376  a.u.
     unit-cell volume          =    1749.2533 (a.u.)^3
     number of atoms/cell      =           36
     number of atomic types    =            2
     number of electrons       =        96.00
     number of Kohn-Sham states=           48
     kinetic-energy cutoff     =      90.0000  Ry
     charge density cutoff     =     360.0000  Ry
     scf convergence threshold =      1.0E-07
     mixing beta               =       0.7000
     number of iterations used =            8  plain     mixing
     Exchange-correlation=  SLA  PW   PBE  PBE
                           (   1   4   3   4   0   0   0)

     celldm(1)=  13.937561  celldm(2)=   0.000000  celldm(3)=   0.000000
     celldm(4)=  -0.392337  celldm(5)=   0.000000  celldm(6)=   0.000000

     crystal axes: (cart. coord. in units of alat)
               a(1) = (   0.834367  -0.481722   0.267909 )  
               a(2) = (   0.000000   0.963444   0.267909 )  
               a(3) = (  -0.834367  -0.481722   0.267909 )  

     reciprocal axes: (cart. coord. in units 2 pi/alat)
               b(1) = (  0.599257 -0.345981  1.244203 )  
               b(2) = (  0.000000  0.691962  1.244203 )  
               b(3) = ( -0.599257 -0.345981  1.244203 )  


     PseudoPot. # 1 for H  read from file:
     ./H.pbe-van_ak.UPF
     MD5 check sum: 077eb6d537518a38cb46c6de387227b7
     Pseudo is Ultrasoft, Zval =  1.0
     Generated by new atomic code, or converted to UPF format
     Using radial grid of  615 points,  1 beta functions with: 
                l(1) =   0
     Q(r) pseudized with  8 coefficients,  rinner =    0.800

     PseudoPot. # 2 for O  read from file:
     ./O.pbe-van_ak.UPF
     MD5 check sum: 78c19812648e8988a0fe644b0f25305e
     Pseudo is Ultrasoft, Zval =  6.0
     Generated by new atomic code, or converted to UPF format
     Using radial grid of  737 points,  4 beta functions with: 
                l(1) =   0
                l(2) =   0
                l(3) =   1
                l(4) =   1
     Q(r) pseudized with  8 coefficients,  rinner =    0.800   0.800   0.800


     atomic species   valence    mass     pseudopotential
     H                 1.00     1.00800     H ( 1.00)
     O                 6.00    16.00000     O ( 1.00)

      6 Sym. Ops., with inversion, found



   Cartesian axes

     site n.     atom                  positions (alat units)
         1        O      tau(   1) = (  -0.4910119  -0.5205722   0.3052394  )
         2        O      tau(   2) = (   0.4910119   0.5205722   0.4984877  )
         3        O      tau(   3) = (   0.6963347  -0.1649427   0.3052394  )
         4        O      tau(   4) = (  -0.6963347   0.1649427   0.4984877  )
         5        O      tau(   5) = (  -0.2053228   0.6855149   0.3052394  )
         6        O      tau(   6) = (   0.2053228  -0.6855149   0.4984877  )
         7        O      tau(   7) = (   0.1229870   0.3303028   0.4196306  )
         8        O      tau(   8) = (  -0.1229870  -0.3303028   0.3840965  )
         9        O      tau(   9) = (  -0.3475441  -0.0586415   0.4196306  )
        10        O      tau(  10) = (   0.3475441   0.0586415   0.3840965  )
        11        O      tau(  11) = (   0.2245571  -0.2716613   0.4196306  )
        12        O      tau(  12) = (  -0.2245571   0.2716612   0.3840965  )
        13        H      tau(  13) = (  -0.5446961  -0.4126715   0.2597134  )
        14        H      tau(  14) = (   0.5446961   0.4126715   0.5440137  )
        15        H      tau(  15) = (   0.6297321  -0.2653849   0.2597134  )
        16        H      tau(  16) = (  -0.6297321   0.2653849   0.5440137  )
        17        H      tau(  17) = (  -0.0850360   0.6780564   0.2597134  )
        18        H      tau(  18) = (   0.0850360  -0.6780564   0.5440137  )
        19        H      tau(  19) = (  -0.4726389  -0.4926041   0.4288765  )
        20        H      tau(  20) = (   0.4726389   0.4926042   0.3748506  )
        21        H      tau(  21) = (   0.6629272  -0.1630152   0.4288765  )
        22        H      tau(  22) = (  -0.6629272   0.1630152   0.3748506  )
        23        H      tau(  23) = (  -0.1902883   0.6556194   0.4288765  )
        24        H      tau(  24) = (   0.1902883  -0.6556194   0.3748506  )
        25        H      tau(  25) = (   0.2676988  -0.1507235   0.4151121  )
        26        H      tau(  26) = (  -0.2676988   0.1507234   0.3886151  )
        27        H      tau(  27) = (  -0.0033191   0.3071957   0.4151121  )
        28        H      tau(  28) = (   0.0033191  -0.3071957   0.3886151  )
        29        H      tau(  29) = (  -0.2643797  -0.1564722   0.4151121  )
        30        H      tau(  30) = (   0.2643797   0.1564723   0.3886151  )
        31        H      tau(  31) = (   0.3102941  -0.3416444   0.3555952  )
        32        H      tau(  32) = (  -0.3102941   0.3416444   0.4481319  )
        33        H      tau(  33) = (   0.1407257   0.4395448   0.3555952  )
        34        H      tau(  34) = (  -0.1407257  -0.4395448   0.4481319  )
        35        H      tau(  35) = (  -0.4510198  -0.0979003   0.3555952  )
        36        H      tau(  36) = (   0.4510198   0.0979003   0.4481319  )

     number of k points=    14
                       cart. coord. in units 2pi/alat
        k(    1) = (   0.0000000   0.0000000   0.0000000), wk =   0.0312500
        k(    2) = (  -0.1498141  -0.0864952   0.3110508), wk =   0.1875000
        k(    3) = (   0.2996283   0.1729905  -0.6221017), wk =   0.0937500
        k(    4) = (  -0.1498141   0.0864952   0.6221017), wk =   0.1875000
        k(    5) = (   0.2996283   0.3459809  -0.3110508), wk =   0.1875000
        k(    6) = (   0.1498141   0.2594857   0.0000000), wk =   0.1875000
        k(    7) = (   0.2996283  -0.1729905  -1.2442034), wk =   0.0937500
        k(    8) = (   0.0000000   0.0000000   0.9331525), wk =   0.0625000
        k(    9) = (   0.4494424   0.2594857   0.0000000), wk =   0.1875000
        k(   10) = (   0.2996283   0.1729905   0.3110508), wk =   0.1875000
        k(   11) = (   0.4494424  -0.2594857  -0.9331525), wk =   0.1875000
        k(   12) = (   0.2996283  -0.3459809  -0.6221017), wk =   0.1875000
        k(   13) = (   0.0000000   0.0000000  -1.8663050), wk =   0.0312500
        k(   14) = (   0.2996283  -0.3459809   0.3110508), wk =   0.1875000

     Dense  grid:   201731 G-vectors     FFT dimensions: (  90,  90,  90)

     Estimated max dynamical RAM per process >      13.65 MB

     Estimated total dynamical RAM >       1.56 GB

     Initial potential from superposition of free atoms

     starting charge      95.9998, renormalised to      96.0000
     Starting wfcs are   72 randomized atomic wfcs

     total cpu time spent up to now is        1.1 secs

     per-process dynamical memory:    18.5 Mb

     Self-consistent Calculation

     iteration #  1     ecut=    90.00 Ry     beta= 0.70
     Davidson diagonalization with overlap
     ethr =  1.00E-02,  avg # of iterations =  2.0

     total cpu time spent up to now is        1.9 secs

     total energy              =    -412.16018066 Ry
     estimated scf accuracy    <       4.22936763 Ry

     iteration #  2     ecut=    90.00 Ry     beta= 0.70
     Davidson diagonalization with overlap
     ethr =  4.41E-03,  avg # of iterations =  3.0

     total cpu time spent up to now is        2.9 secs

     total energy              =    -413.52631461 Ry
     estimated scf accuracy    <       1.91533022 Ry

     iteration #  3     ecut=    90.00 Ry     beta= 0.70
     Davidson diagonalization with overlap
     ethr =  2.00E-03,  avg # of iterations =  2.0

     total cpu time spent up to now is        3.6 secs

     total energy              =    -413.76077217 Ry
     estimated scf accuracy    <       0.07572464 Ry

     iteration #  4     ecut=    90.00 Ry     beta= 0.70
     Davidson diagonalization with overlap
     ethr =  7.89E-05,  avg # of iterations =  4.0

     total cpu time spent up to now is        4.6 secs

     total energy              =    -413.81127564 Ry
     estimated scf accuracy    <       0.10145924 Ry

     iteration #  5     ecut=    90.00 Ry     beta= 0.70
     Davidson diagonalization with overlap
     ethr =  7.89E-05,  avg # of iterations =  2.0

     total cpu time spent up to now is        5.4 secs

     total energy              =    -413.81759193 Ry
     estimated scf accuracy    <       0.01192762 Ry

     iteration #  6     ecut=    90.00 Ry     beta= 0.70
     Davidson diagonalization with overlap
     ethr =  1.24E-05,  avg # of iterations =  2.8

     total cpu time spent up to now is        6.2 secs

     total energy              =    -413.82001380 Ry
     estimated scf accuracy    <       0.00070162 Ry

     iteration #  7     ecut=    90.00 Ry     beta= 0.70
     Davidson diagonalization with overlap
     ethr =  7.31E-07,  avg # of iterations =  4.3

     total cpu time spent up to now is        7.2 secs

     total energy              =    -413.82063811 Ry
     estimated scf accuracy    <       0.00053494 Ry

     iteration #  8     ecut=    90.00 Ry     beta= 0.70
     Davidson diagonalization with overlap
     ethr =  5.57E-07,  avg # of iterations =  2.0

     total cpu time spent up to now is        7.9 secs

     total energy              =    -413.82065162 Ry
     estimated scf accuracy    <       0.00006820 Ry

     iteration #  9     ecut=    90.00 Ry     beta= 0.70
     Davidson diagonalization with overlap
     ethr =  7.10E-08,  avg # of iterations =  2.3

     total cpu time spent up to now is        8.8 secs

     total energy              =    -413.82067662 Ry
     estimated scf accuracy    <       0.00000095 Ry

     iteration # 10     ecut=    90.00 Ry     beta= 0.70
     Davidson diagonalization with overlap
     ethr =  9.91E-10,  avg # of iterations =  4.1

     total cpu time spent up to now is        9.8 secs

     total energy              =    -413.82067609 Ry
     estimated scf accuracy    <       0.00000231 Ry

     iteration # 11     ecut=    90.00 Ry     beta= 0.70
     Davidson diagonalization with overlap
     ethr =  9.91E-10,  avg # of iterations =  3.0

     total cpu time spent up to now is       10.7 secs

     End of self-consistent calculation

          k = 0.0000 0.0000 0.0000 ( 25163 PWs)   bands (ev):

   -20.8185 -20.1947 -20.1947 -19.9213 -19.9213 -19.8947 -19.8480 -19.8480
   -19.8131 -19.4354 -19.4354 -19.0078  -8.1827  -8.0380  -8.0380  -8.0370
    -7.9021  -7.9021  -7.5512  -7.5448  -7.5448  -7.5418  -7.5418  -7.4789
    -6.3776  -5.0613  -5.0613  -4.4063  -4.4063  -4.1231  -4.1231  -4.0286
    -3.8118  -3.0566  -3.0566  -2.2763  -2.0806  -2.0806  -1.9660  -1.8418
    -1.8418  -1.7768  -1.6920  -1.6920  -1.6766  -1.5231  -1.5062  -1.5062

          k =-0.1498-0.0865 0.3111 ( 25190 PWs)   bands (ev):

   -20.7220 -20.2399 -20.1766 -20.1106 -20.0614 -19.9675 -19.7914 -19.7185
   -19.6337 -19.4488 -19.3916 -19.0853  -8.1379  -8.0769  -8.0382  -8.0085
    -7.8992  -7.8544  -7.6486  -7.5981  -7.5571  -7.4882  -7.4379  -7.3997
    -6.1478  -5.2536  -5.0854  -4.7387  -4.5194  -4.2274  -3.9321  -3.8242
    -3.6225  -3.0608  -2.9808  -2.4234  -2.1863  -2.1164  -1.9950  -1.9393
    -1.9048  -1.8265  -1.7202  -1.6731  -1.6202  -1.5836  -1.5156  -1.4991

          k = 0.2996 0.1730-0.6221 ( 25218 PWs)   bands (ev):

   -20.4814 -20.4551 -20.2095 -20.1873 -20.0799 -20.0506 -19.7249 -19.6805
   -19.5047 -19.4301 -19.3076 -19.2499  -8.0967  -8.0786  -8.0304  -8.0046
    -7.9104  -7.8316  -7.6578  -7.6191  -7.5655  -7.5016  -7.3479  -7.3270
    -5.7194  -5.5594  -5.1093  -5.0720  -4.5041  -4.4436  -3.7701  -3.7048
    -3.1908  -3.1902  -2.9618  -2.6788  -2.2641  -2.1494  -2.0240  -2.0215
    -1.9383  -1.8015  -1.7983  -1.7067  -1.6740  -1.5773  -1.4824  -1.4810

          k =-0.1498 0.0865 0.6221 ( 25231 PWs)   bands (ev):

   -20.5290 -20.3287 -20.3111 -20.1501 -20.1279 -20.0344 -19.7250 -19.6105
   -19.5569 -19.4003 -19.3691 -19.2185  -8.0900  -8.0697  -8.0474  -8.0199
    -7.8941  -7.8150  -7.6546  -7.6261  -7.6213  -7.4190  -7.3772  -7.3378
    -5.7510  -5.4168  -5.3566  -4.8384  -4.6460  -4.4306  -3.7956  -3.5285
    -3.4271  -3.0571  -2.9496  -2.7163  -2.2588  -2.1757  -2.0283  -1.9719
    -1.9024  -1.8646  -1.7952  -1.6924  -1.6692  -1.5871  -1.5067  -1.4554

          k = 0.2996 0.3460-0.3111 ( 25223 PWs)   bands (ev):

   -20.5902 -20.3691 -20.2670 -20.1894 -20.0703 -19.9826 -19.7455 -19.6099
   -19.5077 -19.4699 -19.3418 -19.2022  -8.1028  -8.0930  -8.0146  -7.9867
    -7.9076  -7.8467  -7.7425  -7.7045  -7.6271  -7.4276  -7.4049  -7.3394
    -5.8088  -5.4045  -5.1551  -4.8686  -4.8484  -4.1990  -3.7326  -3.5902
    -3.4357  -3.1224  -2.9408  -2.6251  -2.1684  -2.1146  -2.0389  -1.9526
    -1.9008  -1.8041  -1.7707  -1.7346  -1.6415  -1.6300  -1.4802  -1.4146

          k = 0.1498 0.2595 0.0000 ( 25211 PWs)   bands (ev):

   -20.7467 -20.3002 -20.2231 -20.0694 -20.0018 -19.9095 -19.8081 -19.7226
   -19.6287 -19.4479 -19.3995 -19.0741  -8.1524  -8.0703  -8.0371  -7.9938
    -7.9011  -7.8842  -7.7312  -7.6584  -7.5829  -7.4845  -7.4626  -7.4131
    -6.1544  -5.1324  -5.0397  -4.7638  -4.7278  -4.0467  -3.8802  -3.7387
    -3.6598  -3.0926  -3.0505  -2.3494  -2.0802  -2.0523  -2.0223  -1.9157
    -1.8572  -1.8124  -1.7339  -1.7106  -1.6441  -1.5709  -1.4678  -1.4473

          k = 0.2996-0.1730-1.2442 ( 25218 PWs)   bands (ev):

   -20.5710 -20.5262 -20.2450 -20.1348 -19.9972 -19.9446 -19.7146 -19.7140
   -19.5013 -19.4936 -19.2661 -19.2216  -8.1155  -8.0767  -8.0134  -7.9811
    -7.8886  -7.8809  -7.8406  -7.7322  -7.6142  -7.4776  -7.4413  -7.3731
    -5.6335  -5.6021  -5.0874  -5.0089  -4.6255  -4.1932  -3.6823  -3.6110
    -3.3891  -3.2482  -2.8514  -2.6072  -2.0889  -2.0473  -2.0055  -1.9619
    -1.8805  -1.8042  -1.7875  -1.7045  -1.6736  -1.6001  -1.4202  -1.4150

          k = 0.0000 0.0000 0.9332 ( 25244 PWs)   bands (ev):

   -20.4372 -20.4372 -20.3629 -20.2866 -20.0131 -20.0131 -19.6381 -19.6381
   -19.4531 -19.3622 -19.3622 -19.3419  -8.0873  -8.0873  -8.0330  -7.9737
    -7.8987  -7.8987  -7.7779  -7.6885  -7.6885  -7.3616  -7.3616  -7.3188
    -5.5013  -5.5013  -5.4298  -5.0313  -4.5518  -4.5518  -3.4670  -3.4670
    -3.3612  -3.0232  -3.0232  -2.8903  -2.1153  -2.1152  -1.9899  -1.9546
    -1.8664  -1.8664  -1.7634  -1.7203  -1.7203  -1.5637  -1.5637  -1.3799

          k = 0.4494 0.2595 0.0000 ( 25214 PWs)   bands (ev):

   -20.6131 -20.3863 -20.3829 -20.1375 -19.9376 -19.9099 -19.7743 -19.7338
   -19.5074 -19.4072 -19.3502 -19.1899  -8.1084  -8.0703  -8.0424  -7.9475
    -7.9244  -7.8665  -7.8359  -7.7118  -7.6587  -7.4545  -7.4162  -7.3964
    -5.7840  -5.2875  -5.2282  -5.0656  -4.5802  -4.1958  -3.7573  -3.6379
    -3.3138  -3.1134  -3.0040  -2.5715  -2.0671  -2.0492  -2.0263  -1.9565
    -1.8938  -1.8225  -1.7744  -1.7347  -1.6255  -1.5686  -1.4884  -1.3840

          k = 0.2996 0.1730 0.3111 ( 25246 PWs)   bands (ev):

   -20.6544 -20.3035 -20.2018 -20.1812 -20.0699 -19.9831 -19.7477 -19.6885
   -19.5882 -19.4372 -19.3540 -19.1363  -8.1153  -8.0778  -8.0395  -7.9648
    -7.9122  -7.8220  -7.7402  -7.5979  -7.5656  -7.5388  -7.4703  -7.3757
    -5.9508  -5.2350  -5.1669  -4.8025  -4.7351  -4.1979  -3.8334  -3.6488
    -3.6019  -3.0574  -2.9646  -2.4693  -2.2063  -2.1031  -2.0473  -2.0044
    -1.9232  -1.8210  -1.7425  -1.7063  -1.6219  -1.5799  -1.4915  -1.4339

          k = 0.4494-0.2595-0.9332 ( 25225 PWs)   bands (ev):

   -20.4781 -20.4715 -20.2879 -20.2152 -20.0537 -19.9456 -19.7928 -19.6577
   -19.4848 -19.4073 -19.3437 -19.2058  -8.0906  -8.0632  -8.0344  -7.9413
    -7.9021  -7.8326  -7.7661  -7.6817  -7.5943  -7.5413  -7.4495  -7.3914
    -5.6057  -5.4160  -5.2142  -5.0039  -4.6880  -4.1992  -3.9159  -3.5886
    -3.2864  -3.0508  -2.9973  -2.5780  -2.1998  -2.1241  -2.0771  -2.0113
    -1.9762  -1.8607  -1.7331  -1.6907  -1.6253  -1.5878  -1.4875  -1.3802

          k = 0.2996-0.3460-0.6221 ( 25228 PWs)   bands (ev):

   -20.4310 -20.4037 -20.2596 -20.2577 -20.0895 -20.0789 -19.6955 -19.6742
   -19.4699 -19.4464 -19.3267 -19.2268  -8.0960  -8.0430  -8.0097  -7.9803
    -7.9417  -7.7731  -7.7011  -7.6551  -7.5605  -7.5137  -7.3981  -7.3850
    -5.5467  -5.5018  -5.1621  -5.0930  -4.5695  -4.5149  -3.7091  -3.6123
    -3.2525  -3.2258  -2.9024  -2.6595  -2.2790  -2.1491  -2.0910  -2.0699
    -1.9488  -1.8738  -1.7281  -1.6936  -1.6762  -1.5646  -1.5381  -1.3797

          k = 0.0000 0.0000-1.8663 ( 25260 PWs)   bands (ev):

   -20.3616 -20.3367 -20.2615 -20.2615 -20.1969 -20.1969 -19.5844 -19.5844
   -19.5253 -19.5253 -19.3233 -19.2005  -8.0952  -7.9836  -7.9836  -7.9640
    -7.9640  -7.7609  -7.7420  -7.6632  -7.5249  -7.5249  -7.4655  -7.4655
    -5.5384  -5.3582  -4.9527  -4.9527  -4.8219  -4.8219  -3.4469  -3.4469
    -3.3799  -3.3799  -2.8648  -2.6390  -2.2205  -2.1425  -2.1425  -2.1265
    -2.1265  -1.8272  -1.6915  -1.6257  -1.6257  -1.6061  -1.6061  -1.3223

          k = 0.2996-0.3460 0.3111 ( 25223 PWs)   bands (ev):

   -20.5898 -20.3749 -20.2463 -20.2074 -20.0675 -19.9839 -19.7403 -19.5969
   -19.5605 -19.4136 -19.3635 -19.2014  -8.1115  -8.0754  -8.0264  -7.9557
    -7.9348  -7.8535  -7.7613  -7.6823  -7.6243  -7.4252  -7.3988  -7.3485
    -5.8145  -5.3697  -5.2260  -4.8404  -4.7820  -4.2765  -3.8320  -3.4518
    -3.3363  -3.1712  -3.0468  -2.5838  -2.1825  -2.0773  -2.0394  -1.9565
    -1.9092  -1.8153  -1.7661  -1.7423  -1.6792  -1.5804  -1.4868  -1.4162

     highest occupied level (ev):    -1.3223

!    total energy              =    -413.82067654 Ry
     estimated scf accuracy    <          4.7E-09 Ry

     The total energy is the sum of the following terms:
     one-electron contribution =    -270.67667851 Ry
     hartree contribution      =     172.61135439 Ry
     xc contribution           =    -103.01136008 Ry
     ewald contribution        =    -212.74399234 Ry

     convergence has been achieved in  11 iterations

     Forces acting on atoms (cartesian axes, Ry/au):

     atom    1 type  2   force =     0.02803326   -0.09561866   -0.05799971
     atom    2 type  2   force =    -0.02803326    0.09561866    0.05799971
     atom    3 type  2   force =     0.06879155    0.07208685   -0.05799971
     atom    4 type  2   force =    -0.06879155   -0.07208685    0.05799971
     atom    5 type  2   force =    -0.09682482    0.02353181   -0.05799971
     atom    6 type  2   force =     0.09682482   -0.02353181    0.05799971
     atom    7 type  2   force =     0.07634892   -0.05898606    0.04720065
     atom    8 type  2   force =    -0.07634892    0.05898606   -0.04720065
     atom    9 type  2   force =     0.01290897    0.09561314    0.04720065
     atom   10 type  2   force =    -0.01290897   -0.09561314   -0.04720065
     atom   11 type  2   force =    -0.08925789   -0.03662708    0.04720065
     atom   12 type  2   force =     0.08925789    0.03662708   -0.04720065
     atom   13 type  1   force =    -0.03948025    0.07732738   -0.03869492
     atom   14 type  1   force =     0.03948025   -0.07732738    0.03869492
     atom   15 type  1   force =    -0.04722735   -0.07285459   -0.03869492
     atom   16 type  1   force =     0.04722735    0.07285459    0.03869492
     atom   17 type  1   force =     0.08670760   -0.00447279   -0.03869492
     atom   18 type  1   force =    -0.08670760    0.00447279    0.03869492
     atom   19 type  1   force =     0.01811943    0.01656890    0.09670406
     atom   20 type  1   force =    -0.01811943   -0.01656890   -0.09670406
     atom   21 type  1   force =    -0.02340880    0.00740743    0.09670406
     atom   22 type  1   force =     0.02340880   -0.00740743   -0.09670406
     atom   23 type  1   force =     0.00528937   -0.02397633    0.09670406
     atom   24 type  1   force =    -0.00528937    0.02397633   -0.09670406
     atom   25 type  1   force =     0.02880541    0.09336990   -0.00040919
     atom   26 type  1   force =    -0.02880541   -0.09336990    0.00040919
     atom   27 type  1   force =    -0.09526341   -0.02173873   -0.00040919
     atom   28 type  1   force =     0.09526341    0.02173873    0.00040919
     atom   29 type  1   force =     0.06645800   -0.07163117   -0.00040919
     atom   30 type  1   force =    -0.06645800    0.07163117    0.00040919
     atom   31 type  1   force =     0.06472838   -0.05968015   -0.04993144
     atom   32 type  1   force =    -0.06472838    0.05968015    0.04993144
     atom   33 type  1   force =     0.01932033    0.08589650   -0.04993144
     atom   34 type  1   force =    -0.01932033   -0.08589650    0.04993144
     atom   35 type  1   force =    -0.08404872   -0.02621635   -0.04993144
     atom   36 type  1   force =     0.08404872    0.02621635    0.04993144

     Total force =     0.617795     Total SCF correction =     0.000051


     Computing stress (Cartesian axis) and pressure

          total   stress  (Ry/bohr**3)                   (kbar)     P=      160.75
   0.00110086   0.00000000  -0.00000000          161.94        0.00       -0.00
  -0.00000000   0.00110086   0.00000000           -0.00      161.94        0.00
  -0.00000000   0.00000000   0.00107657           -0.00        0.00      158.37


     Writing all to output data dir ./iceII/iceII.save/ :
     XML data file, charge density, pseudopotentials, collected wavefunctions

     init_run     :      0.87s CPU      0.93s WALL (       1 calls)
     electrons    :      9.28s CPU      9.58s WALL (       1 calls)
     forces       :      0.11s CPU      0.12s WALL (       1 calls)
     stress       :      0.75s CPU      0.77s WALL (       1 calls)

     Called by init_run:
     wfcinit      :      0.33s CPU      0.34s WALL (       1 calls)
     potinit      :      0.02s CPU      0.04s WALL (       1 calls)
     hinit0       :      0.39s CPU      0.40s WALL (       1 calls)

     Called by electrons:
     c_bands      :      7.94s CPU      8.13s WALL (      11 calls)
     sum_band     :      1.06s CPU      1.09s WALL (      11 calls)
     v_of_rho     :      0.20s CPU      0.24s WALL (      12 calls)
     newd         :      0.04s CPU      0.04s WALL (      12 calls)
     mix_rho      :      0.03s CPU      0.03s WALL (      11 calls)

     Called by c_bands:
     init_us_2    :      0.10s CPU      0.12s WALL (     100 calls)
     cegterg      :      7.58s CPU      7.72s WALL (      44 calls)

     Called by *egterg:
     cdiaghg      :      0.64s CPU      0.64s WALL (     166 calls)
     h_psi        :      6.07s CPU      6.16s WALL (     170 calls)
     s_psi        :      0.21s CPU      0.22s WALL (     170 calls)
     g_psi        :      0.01s CPU      0.01s WALL (     122 calls)

     Called by h_psi:
     h_psi:calbec :      0.39s CPU      0.40s WALL (     170 calls)
     vloc_psi     :      5.41s CPU      5.47s WALL (     170 calls)
     add_vuspsi   :      0.24s CPU      0.24s WALL (     170 calls)

     General routines
     calbec       :      0.52s CPU      0.53s WALL (     234 calls)
     fft          :      0.46s CPU      0.48s WALL (     140 calls)
     ffts         :      0.01s CPU      0.01s WALL (      11 calls)
     fftw         :      5.61s CPU      5.68s WALL (   15862 calls)

     Parallel routines

     PWSCF        :     11.29s CPU     11.97s WALL


   This run was terminated on:  17:51:15  23Mar2026            

=------------------------------------------------------------------------------=
   JOB DONE.
=------------------------------------------------------------------------------=
