
     Program PWSCF v.7.3.1 starts on 31Mar2026 at 17:18:18 

     This program is part of the open-source Quantum ESPRESSO suite
     for quantum simulation of materials; please cite
         "P. Giannozzi et al., J. Phys.:Condens. Matter 21 395502 (2009);
         "P. Giannozzi et al., J. Phys.:Condens. Matter 29 465901 (2017);
         "P. Giannozzi et al., J. Chem. Phys. 152 154105 (2020);
          URL http://www.quantum-espresso.org", 
     in publications or presentations arising from this work. More details at
     http://www.quantum-espresso.org/quote

     Parallel version (MPI), running on   128 processors

     MPI processes distributed on     1 nodes
     500698 MiB available memory on the printing compute node when the environment starts

     Waiting for input...
     Reading input from standard input

     Current dimensions of program PWSCF are:
     Max number of different atomic species (ntypx) = 10
     Max number of k-points (npk) =  40000
     Max angular momentum in pseudopotentials (lmaxx) =  4

     K-points division:     npool     =       4
     R & G space division:  proc/nbgrp/npool/nimage =      32
     Subspace diagonalization in iterative solution of the eigenvalue problem:
     a serial algorithm will be used


     Parallelization info
     --------------------
     sticks:   dense  smooth     PW     G-vecs:    dense   smooth      PW
     Min         160     160     47                 6321     6321    1018
     Max         161     161     48                 6324     6324    1021
     Sum        5133    5133   1515               202313   202313   32617

     Using Slab Decomposition



     bravais-lattice index     =            5
     lattice parameter (alat)  =      13.9523  a.u.
     unit-cell volume          =    1754.7948 (a.u.)^3
     number of atoms/cell      =           36
     number of atomic types    =            2
     number of electrons       =        96.00
     number of Kohn-Sham states=           48
     kinetic-energy cutoff     =      90.0000  Ry
     charge density cutoff     =     360.0000  Ry
     scf convergence threshold =      1.0E-07
     mixing beta               =       0.7000
     number of iterations used =            8  plain     mixing
     energy convergence thresh.=      1.0E-04
     force convergence thresh. =      1.0E-04
     Exchange-correlation=  SLA  PW   PBE  PBE
                           (   1   4   3   4   0   0   0)
     nstep                     =           50


     celldm(1)=  13.952263  celldm(2)=   0.000000  celldm(3)=   0.000000
     celldm(4)=  -0.392337  celldm(5)=   0.000000  celldm(6)=   0.000000

     crystal axes: (cart. coord. in units of alat)
               a(1) = (   0.834367  -0.481722   0.267909 )  
               a(2) = (   0.000000   0.963444   0.267909 )  
               a(3) = (  -0.834367  -0.481722   0.267909 )  

     reciprocal axes: (cart. coord. in units 2 pi/alat)
               b(1) = (  0.599257 -0.345981  1.244203 )  
               b(2) = (  0.000000  0.691962  1.244203 )  
               b(3) = ( -0.599257 -0.345981  1.244203 )  


     PseudoPot. # 1 for H  read from file:
     ./H.pbe-van_ak.UPF
     MD5 check sum: 077eb6d537518a38cb46c6de387227b7
     Pseudo is Ultrasoft, Zval =  1.0
     Generated by new atomic code, or converted to UPF format
     Using radial grid of  615 points,  1 beta functions with: 
                l(1) =   0
     Q(r) pseudized with  8 coefficients,  rinner =    0.800

     PseudoPot. # 2 for O  read from file:
     ./O.pbe-van_ak.UPF
     MD5 check sum: 78c19812648e8988a0fe644b0f25305e
     Pseudo is Ultrasoft, Zval =  6.0
     Generated by new atomic code, or converted to UPF format
     Using radial grid of  737 points,  4 beta functions with: 
                l(1) =   0
                l(2) =   0
                l(3) =   1
                l(4) =   1
     Q(r) pseudized with  8 coefficients,  rinner =    0.800   0.800   0.800


     atomic species   valence    mass     pseudopotential
     H                 1.00     1.00800     H ( 1.00)
     O                 6.00    16.00000     O ( 1.00)

      6 Sym. Ops., with inversion, found



   Cartesian axes

     site n.     atom                  positions (alat units)
         1        O      tau(   1) = (  -0.4847673  -0.5197781   0.3083633  )
         2        O      tau(   2) = (   0.4847673   0.5197782   0.4953638  )
         3        O      tau(   3) = (   0.6925247  -0.1599317   0.3083633  )
         4        O      tau(   4) = (  -0.6925248   0.1599317   0.4953638  )
         5        O      tau(   5) = (  -0.2077574   0.6797099   0.3083633  )
         6        O      tau(   6) = (   0.2077574  -0.6797099   0.4953638  )
         7        O      tau(   7) = (   0.1218176   0.3323883   0.4179381  )
         8        O      tau(   8) = (  -0.1218176  -0.3323883   0.3857890  )
         9        O      tau(   9) = (  -0.3487655  -0.0606970   0.4179381  )
        10        O      tau(  10) = (   0.3487655   0.0606970   0.3857890  )
        11        O      tau(  11) = (   0.2269479  -0.2716913   0.4179381  )
        12        O      tau(  12) = (  -0.2269479   0.2716912   0.3857890  )
        13        H      tau(  13) = (  -0.5381668  -0.4032014   0.2796970  )
        14        H      tau(  14) = (   0.5381668   0.4032014   0.5240301  )
        15        H      tau(  15) = (   0.6182661  -0.2644654   0.2796970  )
        16        H      tau(  16) = (  -0.6182661   0.2644654   0.5240301  )
        17        H      tau(  17) = (  -0.0800993   0.6676668   0.2796970  )
        18        H      tau(  18) = (   0.0800993  -0.6676668   0.5240301  )
        19        H      tau(  19) = (  -0.4872704  -0.4817221   0.4326731  )
        20        H      tau(  20) = (   0.4872704   0.4817221   0.3710540  )
        21        H      tau(  21) = (   0.6608188  -0.1811275   0.4326731  )
        22        H      tau(  22) = (  -0.6608188   0.1811275   0.3710540  )
        23        H      tau(  23) = (  -0.1735484   0.6628496   0.4326731  )
        24        H      tau(  24) = (   0.1735484  -0.6628496   0.3710540  )
        25        H      tau(  25) = (   0.2703349  -0.1502973   0.4058822  )
        26        H      tau(  26) = (  -0.2703350   0.1502973   0.3978449  )
        27        H      tau(  27) = (  -0.0050062   0.3092656   0.4058822  )
        28        H      tau(  28) = (   0.0050062  -0.3092656   0.3978449  )
        29        H      tau(  29) = (  -0.2653287  -0.1589683   0.4058822  )
        30        H      tau(  30) = (   0.2653287   0.1589683   0.3978449  )
        31        H      tau(  31) = (   0.3178939  -0.3347969   0.3493534  )
        32        H      tau(  32) = (  -0.3178939   0.3347969   0.4543737  )
        33        H      tau(  33) = (   0.1309957   0.4427026   0.3493534  )
        34        H      tau(  34) = (  -0.1309956  -0.4427026   0.4543737  )
        35        H      tau(  35) = (  -0.4488895  -0.1079057   0.3493534  )
        36        H      tau(  36) = (   0.4488895   0.1079057   0.4543737  )

     number of k points=    14
                       cart. coord. in units 2pi/alat
        k(    1) = (   0.0000000   0.0000000   0.0000000), wk =   0.0312500
        k(    2) = (  -0.1498141  -0.0864952   0.3110508), wk =   0.1875000
        k(    3) = (   0.2996283   0.1729905  -0.6221017), wk =   0.0937500
        k(    4) = (  -0.1498141   0.0864952   0.6221017), wk =   0.1875000
        k(    5) = (   0.2996283   0.3459809  -0.3110508), wk =   0.1875000
        k(    6) = (   0.1498141   0.2594857   0.0000000), wk =   0.1875000
        k(    7) = (   0.2996283  -0.1729905  -1.2442034), wk =   0.0937500
        k(    8) = (   0.0000000   0.0000000   0.9331525), wk =   0.0625000
        k(    9) = (   0.4494424   0.2594857   0.0000000), wk =   0.1875000
        k(   10) = (   0.2996283   0.1729905   0.3110508), wk =   0.1875000
        k(   11) = (   0.4494424  -0.2594857  -0.9331525), wk =   0.1875000
        k(   12) = (   0.2996283  -0.3459809  -0.6221017), wk =   0.1875000
        k(   13) = (   0.0000000   0.0000000  -1.8663050), wk =   0.0312500
        k(   14) = (   0.2996283  -0.3459809   0.3110508), wk =   0.1875000

     Dense  grid:   202313 G-vectors     FFT dimensions: (  90,  90,  90)

     Estimated max dynamical RAM per process >      13.68 MB

     Estimated total dynamical RAM >       1.57 GB

     Initial potential from superposition of free atoms

     starting charge      95.9998, renormalised to      96.0000
     Starting wfcs are   72 randomized atomic wfcs

     total cpu time spent up to now is        1.1 secs

     per-process dynamical memory:    18.5 Mb

     Self-consistent Calculation

     iteration #  1     ecut=    90.00 Ry     beta= 0.70
     Davidson diagonalization with overlap
     ethr =  1.00E-02,  avg # of iterations =  2.0

     total cpu time spent up to now is        2.0 secs

     total energy              =    -412.15916160 Ry
     estimated scf accuracy    <       4.00968662 Ry

     iteration #  2     ecut=    90.00 Ry     beta= 0.70
     Davidson diagonalization with overlap
     ethr =  4.18E-03,  avg # of iterations =  3.0

     total cpu time spent up to now is        3.0 secs

     total energy              =    -413.45323809 Ry
     estimated scf accuracy    <       1.90798792 Ry

     iteration #  3     ecut=    90.00 Ry     beta= 0.70
     Davidson diagonalization with overlap
     ethr =  1.99E-03,  avg # of iterations =  2.0

     total cpu time spent up to now is        3.7 secs

     total energy              =    -413.68739098 Ry
     estimated scf accuracy    <       0.07829177 Ry

     iteration #  4     ecut=    90.00 Ry     beta= 0.70
     Davidson diagonalization with overlap
     ethr =  8.16E-05,  avg # of iterations =  4.0

     total cpu time spent up to now is        4.7 secs

     total energy              =    -413.74135425 Ry
     estimated scf accuracy    <       0.10346618 Ry

     iteration #  5     ecut=    90.00 Ry     beta= 0.70
     Davidson diagonalization with overlap
     ethr =  8.16E-05,  avg # of iterations =  2.0

     total cpu time spent up to now is        5.4 secs

     total energy              =    -413.74672007 Ry
     estimated scf accuracy    <       0.01545367 Ry

     iteration #  6     ecut=    90.00 Ry     beta= 0.70
     Davidson diagonalization with overlap
     ethr =  1.61E-05,  avg # of iterations =  2.0

     total cpu time spent up to now is        6.2 secs

     total energy              =    -413.74798115 Ry
     estimated scf accuracy    <       0.00282177 Ry

     iteration #  7     ecut=    90.00 Ry     beta= 0.70
     Davidson diagonalization with overlap
     ethr =  2.94E-06,  avg # of iterations =  2.9

     total cpu time spent up to now is        7.0 secs

     total energy              =    -413.74887406 Ry
     estimated scf accuracy    <       0.00001114 Ry

     iteration #  8     ecut=    90.00 Ry     beta= 0.70
     Davidson diagonalization with overlap
     ethr =  1.16E-08,  avg # of iterations =  6.6

     total cpu time spent up to now is        8.4 secs

     total energy              =    -413.74892376 Ry
     estimated scf accuracy    <       0.00004118 Ry

     iteration #  9     ecut=    90.00 Ry     beta= 0.70
     Davidson diagonalization with overlap
     ethr =  1.16E-08,  avg # of iterations =  2.0

     total cpu time spent up to now is        9.1 secs

     total energy              =    -413.74891749 Ry
     estimated scf accuracy    <       0.00001843 Ry

     iteration # 10     ecut=    90.00 Ry     beta= 0.70
     Davidson diagonalization with overlap
     ethr =  1.16E-08,  avg # of iterations =  2.0

     total cpu time spent up to now is        9.9 secs

     total energy              =    -413.74891899 Ry
     estimated scf accuracy    <       0.00000189 Ry

     iteration # 11     ecut=    90.00 Ry     beta= 0.70
     Davidson diagonalization with overlap
     ethr =  1.97E-09,  avg # of iterations =  3.0

     total cpu time spent up to now is       10.7 secs

     End of self-consistent calculation

          k = 0.0000 0.0000 0.0000 ( 25187 PWs)   bands (ev):

   -20.8584 -20.2330 -20.2330 -19.9379 -19.9379 -19.9128 -19.9128 -19.8820
   -19.8743 -19.4713 -19.4713 -19.0545  -8.0017  -7.7656  -7.7173  -7.7173
    -7.5673  -7.5673  -7.1479  -6.9648  -6.9648  -6.7344  -6.7344  -6.5602
    -6.5003  -5.3903  -5.3903  -4.6860  -4.6860  -4.6193  -4.6193  -4.2690
    -4.0262  -3.3225  -3.3225  -2.6123  -2.0995  -2.0995  -1.9700  -1.8890
    -1.8229  -1.8229  -1.6681  -1.6681  -1.6099  -1.5888  -1.5284  -1.5284

          k =-0.1498-0.0865 0.3111 ( 25267 PWs)   bands (ev):

   -20.7595 -20.2859 -20.2169 -20.1311 -20.1056 -20.0049 -19.8108 -19.7558
   -19.6803 -19.4819 -19.4253 -19.1346  -7.9344  -7.8433  -7.7560  -7.6931
    -7.5534  -7.4850  -7.1590  -6.9461  -6.9147  -6.7730  -6.6041  -6.5685
    -6.3089  -5.5626  -5.3981  -5.0928  -4.7228  -4.5404  -4.3998  -4.1294
    -4.0686  -3.3113  -3.2435  -2.7524  -2.2568  -2.1651  -2.0071  -1.9419
    -1.8699  -1.8163  -1.7699  -1.7022  -1.6118  -1.5734  -1.5179  -1.4611

          k = 0.2996 0.1730-0.6221 ( 25300 PWs)   bands (ev):

   -20.5073 -20.4922 -20.2704 -20.2313 -20.1070 -20.0932 -19.7426 -19.7191
   -19.4989 -19.4840 -19.3494 -19.3106  -7.8975  -7.8343  -7.7441  -7.7057
    -7.5679  -7.4914  -7.0990  -6.9487  -6.8928  -6.7841  -6.4962  -6.4943
    -5.9977  -5.8381  -5.4542  -5.2942  -4.7159  -4.6259  -4.3801  -4.2068
    -3.5816  -3.4916  -3.1740  -2.9347  -2.3986  -2.1980  -2.0403  -2.0137
    -1.9203  -1.8837  -1.7785  -1.6996  -1.6906  -1.5262  -1.5049  -1.4069

          k =-0.1498 0.0865 0.6221 ( 25314 PWs)   bands (ev):

   -20.5571 -20.3732 -20.3534 -20.1913 -20.1652 -20.0799 -19.7457 -19.6363
   -19.5872 -19.4304 -19.4069 -19.2795  -7.9079  -7.8092  -7.7878  -7.6658
    -7.5832  -7.4688  -7.1003  -7.0049  -6.9343  -6.6437  -6.5594  -6.4911
    -6.0051  -5.7560  -5.6337  -5.0861  -4.8767  -4.6697  -4.2969  -4.0634
    -3.8405  -3.2830  -3.2328  -2.9617  -2.3680  -2.2546  -2.0306  -1.9624
    -1.9252  -1.8692  -1.8098  -1.7106  -1.6718  -1.5357  -1.5134  -1.3985

          k = 0.2996 0.3460-0.3111 ( 25315 PWs)   bands (ev):

   -20.6303 -20.4185 -20.2606 -20.2467 -20.1160 -20.0365 -19.7441 -19.6169
   -19.5991 -19.4762 -19.3990 -19.2474  -7.9222  -7.8868  -7.7116  -7.6852
    -7.6076  -7.4937  -7.1561  -7.0790  -6.9258  -6.6058  -6.5706  -6.4741
    -6.1587  -5.7849  -5.5066  -5.1208  -5.0605  -4.4547  -4.2615  -3.9630
    -3.7011  -3.4561  -3.2269  -2.9222  -2.2409  -2.1598  -2.0508  -1.9669
    -1.8952  -1.8271  -1.7624  -1.7395  -1.6324  -1.5914  -1.5130  -1.3789

          k = 0.1498 0.2595 0.0000 ( 25287 PWs)   bands (ev):

   -20.7876 -20.3417 -20.2637 -20.0823 -20.0474 -19.9393 -19.8397 -19.7409
   -19.6907 -19.4884 -19.4376 -19.1185  -7.9807  -7.8622  -7.7441  -7.6792
    -7.5348  -7.5237  -7.2472  -7.0613  -6.8358  -6.7358  -6.6372  -6.4946
    -6.4811  -5.5276  -5.3682  -5.0911  -4.9706  -4.4021  -4.2370  -4.1194
    -3.8911  -3.4005  -3.3086  -2.6939  -2.1043  -2.0725  -2.0219  -1.9286
    -1.8784  -1.8428  -1.6941  -1.6705  -1.6306  -1.6131  -1.4831  -1.4630

          k = 0.2996-0.1730-1.2442 ( 25290 PWs)   bands (ev):

   -20.6188 -20.5625 -20.2888 -20.1430 -20.0514 -19.9612 -19.7700 -19.7103
   -19.5708 -19.5331 -19.2952 -19.2711  -7.9585  -7.9072  -7.7416  -7.7034
    -7.5176  -7.4976  -7.2591  -7.1618  -6.8286  -6.7616  -6.5389  -6.4778
    -6.0485  -6.0109  -5.4563  -5.2249  -4.8653  -4.5306  -4.0778  -3.8152
    -3.6880  -3.6625  -3.1383  -2.9235  -2.1306  -2.0590  -2.0251  -1.9760
    -1.8862  -1.7902  -1.7835  -1.6828  -1.6766  -1.6072  -1.4359  -1.4239

          k = 0.0000 0.0000 0.9332 ( 25346 PWs)   bands (ev):

   -20.4868 -20.4868 -20.3816 -20.3050 -20.0644 -20.0644 -19.6451 -19.6451
   -19.4964 -19.4189 -19.3985 -19.3985  -7.8887  -7.8887  -7.7220  -7.6240
    -7.6046  -7.6046  -7.1655  -7.0423  -7.0423  -6.4893  -6.4893  -6.4394
    -5.9141  -5.9141  -5.9033  -5.1432  -4.7678  -4.7678  -4.0133  -3.8124
    -3.8124  -3.3016  -3.3016  -3.1393  -2.1681  -2.1681  -2.0223  -1.9272
    -1.8636  -1.8636  -1.7793  -1.7151  -1.7151  -1.5730  -1.5730  -1.3486

          k = 0.4494 0.2595 0.0000 ( 25272 PWs)   bands (ev):

   -20.6562 -20.4344 -20.4202 -20.1431 -19.9789 -19.9514 -19.7875 -19.7698
   -19.5716 -19.4391 -19.3910 -19.2331  -7.9475  -7.8985  -7.8095  -7.6276
    -7.5568  -7.4895  -7.2749  -7.0993  -6.9467  -6.6324  -6.5601  -6.5101
    -6.1841  -5.7356  -5.6450  -5.1735  -4.8610  -4.5334  -4.0148  -3.9758
    -3.7357  -3.4177  -3.2726  -2.8957  -2.1038  -2.0942  -2.0081  -1.9810
    -1.8984  -1.8211  -1.7396  -1.7096  -1.6375  -1.5780  -1.5030  -1.3997

          k = 0.2996 0.1730 0.3111 ( 25307 PWs)   bands (ev):

   -20.6928 -20.3508 -20.2348 -20.2125 -20.1030 -20.0243 -19.7644 -19.7334
   -19.6273 -19.4712 -19.3917 -19.1849  -7.9440  -7.8772  -7.7810  -7.6294
    -7.6035  -7.4204  -7.2006  -7.0332  -6.8207  -6.7322  -6.6681  -6.5407
    -6.1909  -5.5548  -5.3522  -5.2594  -5.0198  -4.5755  -4.2323  -3.9955
    -3.8470  -3.3718  -3.2464  -2.7871  -2.2647  -2.1836  -2.0780  -2.0222
    -1.8923  -1.8426  -1.7445  -1.6993  -1.5921  -1.5471  -1.4714  -1.4562

          k = 0.4494-0.2595-0.9332 ( 25297 PWs)   bands (ev):

   -20.5228 -20.5090 -20.3319 -20.2366 -20.0853 -19.9881 -19.8158 -19.7070
   -19.5116 -19.4468 -19.3742 -19.2604  -7.9761  -7.8584  -7.8117  -7.6282
    -7.5722  -7.4026  -7.2625  -6.9977  -6.8463  -6.7794  -6.5913  -6.5459
    -5.8624  -5.8219  -5.4383  -5.2839  -5.0648  -4.6811  -4.1765  -3.8611
    -3.5441  -3.4598  -3.2835  -2.8735  -2.2518  -2.2082  -2.1628  -2.0250
    -1.9800  -1.8648  -1.6796  -1.6507  -1.6054  -1.5613  -1.4744  -1.4111

          k = 0.2996-0.3460-0.6221 ( 25300 PWs)   bands (ev):

   -20.4614 -20.4387 -20.3126 -20.2869 -20.1323 -20.1262 -19.7170 -19.7014
   -19.5000 -19.4851 -19.3439 -19.2987  -7.9898  -7.7589  -7.7258  -7.6965
    -7.6518  -7.4023  -7.1332  -7.0138  -6.8081  -6.7588  -6.5576  -6.5513
    -5.8216  -5.6813  -5.4830  -5.3515  -4.9704  -4.9249  -4.0827  -4.0021
    -3.5496  -3.5073  -3.2655  -2.8544  -2.4334  -2.2318  -2.1564  -2.0729
    -1.9962  -1.8237  -1.7382  -1.6875  -1.6528  -1.5082  -1.4851  -1.3870

          k = 0.0000 0.0000-1.8663 ( 25356 PWs)   bands (ev):

   -20.4115 -20.3595 -20.2756 -20.2756 -20.2611 -20.2611 -19.6211 -19.6211
   -19.5558 -19.5558 -19.3229 -19.2814  -8.0482  -7.7034  -7.7034  -7.6917
    -7.6917  -7.3762  -7.1883  -7.0188  -6.6916  -6.6916  -6.6590  -6.6590
    -5.5971  -5.4394  -5.3625  -5.3625  -5.3156  -5.3156  -3.8187  -3.8187
    -3.6030  -3.6030  -3.2648  -2.7970  -2.4692  -2.2400  -2.2400  -2.1268
    -2.1268  -1.7525  -1.7374  -1.6002  -1.6002  -1.5249  -1.5249  -1.3546

          k = 0.2996-0.3460 0.3111 ( 25315 PWs)   bands (ev):

   -20.6306 -20.4142 -20.2839 -20.2297 -20.1115 -20.0363 -19.7481 -19.6387
   -19.5608 -19.5013 -19.3856 -19.2507  -7.9386  -7.8505  -7.7526  -7.6688
    -7.5886  -7.4981  -7.2172  -7.0384  -6.8996  -6.6524  -6.5262  -6.4992
    -6.1440  -5.7062  -5.6243  -5.1606  -4.9120  -4.5316  -4.3492  -3.8522
    -3.6659  -3.4467  -3.3241  -2.8876  -2.2535  -2.1205  -2.0676  -1.9650
    -1.9092  -1.8304  -1.7680  -1.7356  -1.6537  -1.5532  -1.5128  -1.3896

     highest occupied level (ev):    -1.3486

!    total energy              =    -413.74891967 Ry
     estimated scf accuracy    <       0.00000001 Ry

     The total energy is the sum of the following terms:
     one-electron contribution =    -271.71685614 Ry
     hartree contribution      =     173.06310363 Ry
     xc contribution           =    -102.71941145 Ry
     ewald contribution        =    -212.37575571 Ry

     convergence has been achieved in  11 iterations

     Forces acting on atoms (cartesian axes, Ry/au):

     atom    1 type  2   force =    -0.00050936   -0.02835819   -0.03223584
     atom    2 type  2   force =     0.00050936    0.02835819    0.03223584
     atom    3 type  2   force =     0.02481359    0.01373798   -0.03223584
     atom    4 type  2   force =    -0.02481359   -0.01373798    0.03223584
     atom    5 type  2   force =    -0.02430423    0.01462021   -0.03223584
     atom    6 type  2   force =     0.02430423   -0.01462021    0.03223584
     atom    7 type  2   force =     0.04437118   -0.02655428    0.02544893
     atom    8 type  2   force =    -0.04437118    0.02655428   -0.02544893
     atom    9 type  2   force =     0.00081109    0.05170371    0.02544893
     atom   10 type  2   force =    -0.00081109   -0.05170371   -0.02544893
     atom   11 type  2   force =    -0.04518227   -0.02514943    0.02544893
     atom   12 type  2   force =     0.04518227    0.02514943   -0.02544893
     atom   13 type  1   force =    -0.03150906    0.04757902   -0.08059837
     atom   14 type  1   force =     0.03150906   -0.04757902    0.08059837
     atom   15 type  1   force =    -0.02545011   -0.05107715   -0.08059837
     atom   16 type  1   force =     0.02545011    0.05107715    0.08059837
     atom   17 type  1   force =     0.05695917    0.00349813   -0.08059837
     atom   18 type  1   force =    -0.05695917   -0.00349813    0.08059837
     atom   19 type  1   force =     0.03332997   -0.02724071    0.09994386
     atom   20 type  1   force =    -0.03332997    0.02724071   -0.09994386
     atom   21 type  1   force =     0.00692616    0.04248496    0.09994386
     atom   22 type  1   force =    -0.00692616   -0.04248496   -0.09994386
     atom   23 type  1   force =    -0.04025613   -0.01524425    0.09994386
     atom   24 type  1   force =     0.04025613    0.01524425   -0.09994386
     atom   25 type  1   force =     0.01202841    0.08550564    0.00778446
     atom   26 type  1   force =    -0.01202841   -0.08550564   -0.00778446
     atom   27 type  1   force =    -0.08006426   -0.03233592    0.00778446
     atom   28 type  1   force =     0.08006426    0.03233592   -0.00778446
     atom   29 type  1   force =     0.06803586   -0.05316973    0.00778446
     atom   30 type  1   force =    -0.06803586    0.05316973   -0.00778446
     atom   31 type  1   force =     0.03020029   -0.05918732   -0.02966524
     atom   32 type  1   force =    -0.03020029    0.05918732    0.02966524
     atom   33 type  1   force =     0.03615757    0.05574788   -0.02966524
     atom   34 type  1   force =    -0.03615757   -0.05574788    0.02966524
     atom   35 type  1   force =    -0.06635786    0.00343944   -0.02966524
     atom   36 type  1   force =     0.06635786   -0.00343944    0.02966524

     Total force =     0.487266     Total SCF correction =     0.000164


     Computing stress (Cartesian axis) and pressure

          total   stress  (Ry/bohr**3)                   (kbar)     P=      133.45
   0.00084260   0.00000000  -0.00000000          123.95        0.00       -0.00
  -0.00000000   0.00084260   0.00000000           -0.00      123.95        0.00
  -0.00000000   0.00000000   0.00103641           -0.00        0.00      152.46


     BFGS Geometry Optimization
     Energy error            =      0.0E+00 Ry
     Gradient error          =      1.0E-01 Ry/Bohr

     number of scf cycles    =   1
     number of bfgs steps    =   0

     energy             new  =    -413.7489196739 Ry

     new trust radius        =       0.1088196591 bohr
     new conv_thr            =       0.0000001000 Ry


ATOMIC_POSITIONS (crystal)
O                0.2708066816        0.0197189220        0.8518504060
O                0.7291933184        0.9802810890        0.1481495640
O                0.8518504060        0.2708066816        0.0197189220
O                0.1481495640        0.7291933184        0.9802810890
O                0.0197189220        0.8518504060        0.2708066816
O                0.9802810890        0.1481495640        0.7291933184
O                0.4828336553        0.7509524689        0.3330221293
O                0.5171663447        0.2490475311        0.6669778407
O                0.3330221293        0.4828336553        0.7509524689
O                0.6669778407        0.5171663447        0.2490475311
O                0.7509524689        0.3330221293        0.4828336553
O                0.2490475311        0.6669778407        0.5171663447
H                0.1552794184        0.0641722579        0.8029860723
H                0.8447205676        0.9358277341        0.1970139277
H                0.8029860723        0.1552794184        0.0641722579
H                0.1970139277        0.8447205676        0.9358277341
H                0.0641722579        0.8029860723        0.1552794184
H                0.9358277341        0.1970139277        0.8447205676
H                0.4240195953        0.2125615638        1.0051565087
H                0.5759804047        0.7874384512       -0.0051565297
H                1.0051565087        0.4240195953        0.2125615638
H               -0.0051565297        0.5759804047        0.7874384512
H                0.2125615638        1.0051565087        0.4240195953
H                0.7874384512       -0.0051565297        0.5759804047
H                0.7180904687        0.4059348269        0.3930572456
H                0.2819095313        0.5940651431        0.6069427844
H                0.3930572456        0.7180904687        0.4059348269
H                0.6069427844        0.2819095313        0.5940651431
H                0.4059348269        0.3930572456        0.7180904687
H                0.5940651431        0.6069427844        0.2819095313
H                0.7411193912        0.1974191822        0.3575251734
H                0.2588806088        0.8025808028        0.6424748266
H                0.3575251734        0.7411193912        0.1974191822
H                0.6424748266        0.2588806088        0.8025808028
H                0.1974191822        0.3575251734        0.7411193912
H                0.8025808028        0.6424748266        0.2588806088



     Writing config-only to output data dir ./iceII/iceII.save/ :
     XML data file
     NEW-OLD atomic charge density approx. for the potential

     total cpu time spent up to now is       11.7 secs

     per-process dynamical memory:    23.4 Mb

     Self-consistent Calculation

     iteration #  1     ecut=    90.00 Ry     beta= 0.70
     Davidson diagonalization with overlap
     ethr =  1.00E-06,  avg # of iterations =  7.6

     total cpu time spent up to now is       13.5 secs

     total energy              =    -413.84195949 Ry
     estimated scf accuracy    <       0.04358245 Ry

     iteration #  2     ecut=    90.00 Ry     beta= 0.70
     Davidson diagonalization with overlap
     ethr =  4.54E-05,  avg # of iterations =  3.0

     total cpu time spent up to now is       14.4 secs

     total energy              =    -413.85444942 Ry
     estimated scf accuracy    <       0.01183885 Ry

     iteration #  3     ecut=    90.00 Ry     beta= 0.70
     Davidson diagonalization with overlap
     ethr =  1.23E-05,  avg # of iterations =  2.0

     total cpu time spent up to now is       15.1 secs

     total energy              =    -413.85584251 Ry
     estimated scf accuracy    <       0.00043092 Ry

     iteration #  4     ecut=    90.00 Ry     beta= 0.70
     Davidson diagonalization with overlap
     ethr =  4.49E-07,  avg # of iterations =  4.0

     total cpu time spent up to now is       16.0 secs

     total energy              =    -413.85611038 Ry
     estimated scf accuracy    <       0.00032876 Ry

     iteration #  5     ecut=    90.00 Ry     beta= 0.70
     Davidson diagonalization with overlap
     ethr =  3.42E-07,  avg # of iterations =  2.0

     total cpu time spent up to now is       16.7 secs

     total energy              =    -413.85613343 Ry
     estimated scf accuracy    <       0.00003468 Ry

     iteration #  6     ecut=    90.00 Ry     beta= 0.70
     Davidson diagonalization with overlap
     ethr =  3.61E-08,  avg # of iterations =  4.0

     total cpu time spent up to now is       17.8 secs

     total energy              =    -413.85614685 Ry
     estimated scf accuracy    <       0.00003520 Ry

     iteration #  7     ecut=    90.00 Ry     beta= 0.70
     Davidson diagonalization with overlap
     ethr =  3.61E-08,  avg # of iterations =  2.0

     total cpu time spent up to now is       18.6 secs

     total energy              =    -413.85615337 Ry
     estimated scf accuracy    <       0.00000043 Ry

     iteration #  8     ecut=    90.00 Ry     beta= 0.70
     Davidson diagonalization with overlap
     ethr =  4.44E-10,  avg # of iterations =  5.9

     total cpu time spent up to now is       19.9 secs

     total energy              =    -413.85615402 Ry
     estimated scf accuracy    <       0.00000057 Ry

     iteration #  9     ecut=    90.00 Ry     beta= 0.70
     Davidson diagonalization with overlap
     ethr =  4.44E-10,  avg # of iterations =  2.0

     total cpu time spent up to now is       20.5 secs

     End of self-consistent calculation

          k = 0.0000 0.0000 0.0000 ( 25187 PWs)   bands (ev):

   -20.3042 -19.6149 -19.6149 -19.2818 -19.2818 -19.2474 -19.2474 -19.2195
   -19.2161 -18.7474 -18.7474 -18.2588  -7.6262  -7.4499  -7.4499  -7.3287
    -7.2461  -7.1348  -7.1348  -6.6215  -6.6215  -6.4073  -6.4073  -6.3087
    -6.1456  -5.2035  -5.2035  -4.4959  -4.4959  -4.4926  -4.4926  -4.0081
    -3.8192  -3.0721  -3.0721  -2.2789  -1.9355  -1.9355  -1.7428  -1.7329
    -1.6414  -1.6414  -1.5195  -1.5195  -1.4684  -1.4159  -1.4159  -1.4002

          k =-0.1498-0.0865 0.3111 ( 25267 PWs)   bands (ev):

   -20.1975 -19.6755 -19.6062 -19.4956 -19.4503 -19.3479 -19.1492 -19.0832
   -18.9925 -18.7561 -18.6919 -18.3532  -7.5659  -7.5296  -7.4571  -7.2805
    -7.2116  -7.1225  -6.9987  -6.6746  -6.6276  -6.4479  -6.2695  -6.2269
    -6.0009  -5.3922  -5.1706  -4.9596  -4.6375  -4.3199  -4.2412  -3.8835
    -3.8631  -3.0550  -2.9816  -2.4768  -2.0904  -2.0067  -1.8340  -1.7829
    -1.7062  -1.6333  -1.5912  -1.5442  -1.4888  -1.4242  -1.3958  -1.3227

          k = 0.2996 0.1730-0.6221 ( 25300 PWs)   bands (ev):

   -19.9450 -19.8849 -19.6594 -19.6015 -19.4678 -19.4320 -19.0835 -19.0402
   -18.8034 -18.7416 -18.5982 -18.5592  -7.5680  -7.4946  -7.4148  -7.3229
    -7.1648  -7.1580  -6.8543  -6.6863  -6.6064  -6.5064  -6.1195  -6.1183
    -5.7472  -5.6581  -5.1993  -5.1848  -4.6186  -4.5606  -4.1155  -3.9567
    -3.3124  -3.2902  -2.9239  -2.7148  -2.2331  -2.0575  -1.8910  -1.8566
    -1.7607  -1.6585  -1.6205  -1.5943  -1.5226  -1.4138  -1.3455  -1.2743

          k =-0.1498 0.0865 0.6221 ( 25314 PWs)   bands (ev):

   -19.9835 -19.7730 -19.7447 -19.5657 -19.5199 -19.4280 -19.0786 -18.9538
   -18.8852 -18.6985 -18.6664 -18.5192  -7.5790  -7.4837  -7.4446  -7.2842
    -7.1867  -7.0985  -6.8980  -6.7386  -6.6527  -6.3233  -6.2100  -6.1207
    -5.7518  -5.5813  -5.4377  -4.9274  -4.7431  -4.5766  -4.0543  -3.8197
    -3.6329  -3.0645  -2.9458  -2.7540  -2.2113  -2.1053  -1.8864  -1.7726
    -1.7440  -1.7062  -1.6501  -1.5659  -1.5371  -1.4195  -1.3558  -1.2612

          k = 0.2996 0.3460-0.3111 ( 25315 PWs)   bands (ev):

   -20.0560 -19.8124 -19.6956 -19.5828 -19.4770 -19.3852 -19.0784 -18.9438
   -18.8428 -18.7887 -18.6447 -18.4903  -7.5936  -7.5046  -7.3842  -7.3408
    -7.2800  -7.1494  -6.8989  -6.7994  -6.6596  -6.3144  -6.2270  -6.0754
    -5.9414  -5.5989  -5.3359  -5.0134  -4.8747  -4.2773  -4.0060  -3.7412
    -3.4900  -3.1970  -2.9720  -2.6945  -2.0659  -2.0008  -1.8790  -1.8078
    -1.7230  -1.6648  -1.6087  -1.5836  -1.4952  -1.4664  -1.3567  -1.2438

          k = 0.1498 0.2595 0.0000 ( 25287 PWs)   bands (ev):

   -20.2264 -19.7337 -19.6467 -19.4511 -19.4062 -19.2855 -19.1660 -19.0575
   -18.9937 -18.7661 -18.7108 -18.3363  -7.6088  -7.5498  -7.4413  -7.2681
    -7.2317  -7.1389  -7.1046  -6.7566  -6.6016  -6.4357  -6.3085  -6.2081
    -6.1188  -5.3325  -5.1957  -4.9372  -4.8370  -4.1706  -4.0045  -3.9112
    -3.6812  -3.1542  -3.0676  -2.3750  -1.9414  -1.9067  -1.8313  -1.7649
    -1.7121  -1.6731  -1.5450  -1.5193  -1.4823  -1.4550  -1.3457  -1.3318

          k = 0.2996-0.1730-1.2442 ( 25290 PWs)   bands (ev):

   -20.0402 -19.9787 -19.6724 -19.5224 -19.4078 -19.3164 -19.0780 -19.0292
   -18.8432 -18.8248 -18.5442 -18.5211  -7.6102  -7.5664  -7.3899  -7.3002
    -7.2852  -7.1848  -6.9675  -6.8821  -6.5766  -6.4840  -6.1765  -6.0829
    -5.8736  -5.8274  -5.3408  -5.0460  -4.6707  -4.2868  -3.8041  -3.5776
    -3.5082  -3.4196  -2.8735  -2.6807  -1.9638  -1.8809  -1.8469  -1.8141
    -1.7168  -1.6329  -1.6102  -1.5580  -1.5100  -1.4810  -1.2952  -1.2771

          k = 0.0000 0.0000 0.9332 ( 25346 PWs)   bands (ev):

   -19.8939 -19.8939 -19.8068 -19.6645 -19.4235 -19.4235 -18.9528 -18.9528
   -18.7815 -18.6832 -18.6608 -18.6608  -7.5195  -7.5195  -7.4092  -7.3044
    -7.2647  -7.2647  -6.8677  -6.7856  -6.7856  -6.1224  -6.1224  -6.0294
    -5.7895  -5.7895  -5.7032  -5.0556  -4.5764  -4.5764  -3.7554  -3.5467
    -3.5467  -3.0702  -3.0702  -2.9655  -2.0022  -2.0022  -1.8225  -1.7677
    -1.6892  -1.6892  -1.5985  -1.5985  -1.5787  -1.4401  -1.4401  -1.2139

          k = 0.4494 0.2595 0.0000 ( 25272 PWs)   bands (ev):

   -20.0817 -19.8355 -19.8210 -19.5198 -19.3348 -19.2979 -19.1125 -19.0804
   -18.8489 -18.7141 -18.6581 -18.4738  -7.5883  -7.5598  -7.4612  -7.3060
    -7.2290  -7.1805  -6.9779  -6.8435  -6.7025  -6.3298  -6.2081  -6.1404
    -5.9715  -5.5618  -5.5259  -5.0149  -4.6457  -4.2865  -3.7821  -3.7609
    -3.4700  -3.1969  -3.0395  -2.6349  -1.9332  -1.9205  -1.8301  -1.8110
    -1.7368  -1.6623  -1.5812  -1.5475  -1.5017  -1.4333  -1.3756  -1.2504

          k = 0.2996 0.1730 0.3111 ( 25307 PWs)   bands (ev):

   -20.1242 -19.7451 -19.6265 -19.5882 -19.4557 -19.3676 -19.0993 -19.0468
   -18.9323 -18.7447 -18.6528 -18.4138  -7.6155  -7.5192  -7.4541  -7.3014
    -7.2026  -7.0836  -6.9617  -6.7977  -6.5322  -6.4406  -6.3649  -6.1598
    -5.9099  -5.3752  -5.1307  -5.0886  -4.9147  -4.3663  -4.0174  -3.7813
    -3.6732  -3.1014  -2.9885  -2.5173  -2.0983  -2.0285  -1.9021  -1.8740
    -1.7218  -1.7021  -1.5701  -1.5474  -1.4758  -1.3955  -1.3433  -1.2896

          k = 0.4494-0.2595-0.9332 ( 25297 PWs)   bands (ev):

   -19.9362 -19.9217 -19.7253 -19.6187 -19.4446 -19.3246 -19.1567 -19.0115
   -18.8023 -18.7145 -18.6372 -18.5015  -7.6602  -7.4868  -7.4563  -7.2927
    -7.2378  -7.1100  -6.9222  -6.7431  -6.5945  -6.5070  -6.2556  -6.1636
    -5.6691  -5.6098  -5.3155  -5.0730  -4.8470  -4.4372  -4.0036  -3.6766
    -3.3464  -3.1458  -3.0535  -2.6242  -2.0856  -2.0418  -2.0016  -1.8693
    -1.8284  -1.7125  -1.5398  -1.4931  -1.4755  -1.4258  -1.3333  -1.2356

          k = 0.2996-0.3460-0.6221 ( 25300 PWs)   bands (ev):

   -19.8933 -19.8271 -19.7039 -19.6750 -19.4891 -19.4715 -19.0452 -19.0217
   -18.7824 -18.7631 -18.6102 -18.5313  -7.6771  -7.4320  -7.3631  -7.3106
    -7.2658  -7.1002  -6.8442  -6.7672  -6.5209  -6.4730  -6.1985  -6.1886
    -5.5796  -5.4800  -5.2662  -5.1728  -4.8441  -4.7761  -3.8696  -3.7723
    -3.3674  -3.3191  -2.9457  -2.6436  -2.2628  -2.0787  -2.0007  -1.9167
    -1.8250  -1.7100  -1.5524  -1.5498  -1.5173  -1.3795  -1.3420  -1.2188

          k = 0.0000 0.0000-1.8663 ( 25356 PWs)   bands (ev):

   -19.8292 -19.7353 -19.7033 -19.7033 -19.5974 -19.5974 -18.9167 -18.9167
   -18.8563 -18.8563 -18.5985 -18.5010  -7.7510  -7.3116  -7.3116  -7.3011
    -7.3011  -7.2515  -6.8148  -6.7714  -6.3604  -6.3604  -6.3572  -6.3572
    -5.2757  -5.2597  -5.2217  -5.2217  -5.1050  -5.1050  -3.5687  -3.5687
    -3.4832  -3.4832  -2.9142  -2.5907  -2.2808  -2.0862  -2.0862  -1.9813
    -1.9813  -1.6623  -1.5336  -1.4758  -1.4758  -1.3788  -1.3788  -1.1699

          k = 0.2996-0.3460 0.3111 ( 25315 PWs)   bands (ev):

   -20.0547 -19.8257 -19.6595 -19.6080 -19.4756 -19.3884 -19.0686 -18.9293
   -18.8973 -18.7390 -18.6618 -18.4896  -7.5862  -7.5019  -7.4161  -7.2944
    -7.2871  -7.1503  -6.9753  -6.7499  -6.6227  -6.3933  -6.1719  -6.1044
    -5.8973  -5.5489  -5.4444  -4.9930  -4.7955  -4.3525  -4.0992  -3.6167
    -3.4093  -3.2096  -3.1100  -2.6366  -2.0842  -1.9501  -1.8992  -1.8025
    -1.7701  -1.6381  -1.6115  -1.5692  -1.5368  -1.4283  -1.3572  -1.2520

     highest occupied level (ev):    -1.1699

!    total energy              =    -413.85615400 Ry
     estimated scf accuracy    <       0.00000009 Ry

     The total energy is the sum of the following terms:
     one-electron contribution =    -262.03168955 Ry
     hartree contribution      =     168.78059871 Ry
     xc contribution           =    -101.74071229 Ry
     ewald contribution        =    -218.86435087 Ry

     convergence has been achieved in   9 iterations

     Forces acting on atoms (cartesian axes, Ry/au):

     atom    1 type  2   force =    -0.02263252    0.03947343    0.03726853
     atom    2 type  2   force =     0.02263252   -0.03947343   -0.03726853
     atom    3 type  2   force =    -0.02286873   -0.03933706    0.03726853
     atom    4 type  2   force =     0.02286873    0.03933706   -0.03726853
     atom    5 type  2   force =     0.04550126   -0.00013638    0.03726853
     atom    6 type  2   force =    -0.04550126    0.00013638   -0.03726853
     atom    7 type  2   force =    -0.03846741    0.01484957   -0.01832055
     atom    8 type  2   force =     0.03846741   -0.01484957    0.01832055
     atom    9 type  2   force =     0.00637360   -0.04073854   -0.01832055
     atom   10 type  2   force =    -0.00637360    0.04073854    0.01832055
     atom   11 type  2   force =     0.03209381    0.02588897   -0.01832055
     atom   12 type  2   force =    -0.03209381   -0.02588897    0.01832055
     atom   13 type  1   force =    -0.00392659   -0.01073229   -0.04539977
     atom   14 type  1   force =     0.00392659    0.01073229    0.04539977
     atom   15 type  1   force =     0.01125773    0.00196562   -0.04539977
     atom   16 type  1   force =    -0.01125773   -0.00196562    0.04539977
     atom   17 type  1   force =    -0.00733114    0.00876667   -0.04539977
     atom   18 type  1   force =     0.00733114   -0.00876667    0.04539977
     atom   19 type  1   force =     0.02766097   -0.03687817   -0.00377819
     atom   20 type  1   force =    -0.02766097    0.03687817    0.00377819
     atom   21 type  1   force =     0.01810695    0.04239418   -0.00377819
     atom   22 type  1   force =    -0.01810695   -0.04239418    0.00377819
     atom   23 type  1   force =    -0.04576791   -0.00551602   -0.00377819
     atom   24 type  1   force =     0.04576791    0.00551602    0.00377819
     atom   25 type  1   force =    -0.01733596   -0.00365509    0.01707054
     atom   26 type  1   force =     0.01733596    0.00365509   -0.01707054
     atom   27 type  1   force =     0.01183338   -0.01318584    0.01707054
     atom   28 type  1   force =    -0.01183338    0.01318584   -0.01707054
     atom   29 type  1   force =     0.00550258    0.01684093    0.01707054
     atom   30 type  1   force =    -0.00550258   -0.01684093   -0.01707054
     atom   31 type  1   force =    -0.02027120   -0.02111178    0.00908582
     atom   32 type  1   force =     0.02027120    0.02111178   -0.00908582
     atom   33 type  1   force =     0.02841894   -0.00699948    0.00908582
     atom   34 type  1   force =    -0.02841894    0.00699948   -0.00908582
     atom   35 type  1   force =    -0.00814774    0.02811126    0.00908582
     atom   36 type  1   force =     0.00814774   -0.02811126   -0.00908582

     Total force =     0.261199     Total SCF correction =     0.000247


     Computing stress (Cartesian axis) and pressure

          total   stress  (Ry/bohr**3)                   (kbar)     P=       13.57
   0.00005875   0.00000000  -0.00000000            8.64        0.00       -0.00
  -0.00000000   0.00005875   0.00000000           -0.00        8.64        0.00
   0.00000000   0.00000000   0.00015928            0.00        0.00       23.43

     Energy error            =      1.1E-01 Ry
     Gradient error          =      4.6E-02 Ry/Bohr

     number of scf cycles    =   2
     number of bfgs steps    =   1

     energy             old  =    -413.7489196739 Ry
     energy             new  =    -413.8561539951 Ry

     CASE: energy            _new < energy            _old

     new trust radius        =       0.0696580720 bohr
     new conv_thr            =       0.0000001000 Ry


ATOMIC_POSITIONS (crystal)
O                0.2715487495        0.0237644979        0.8545454357
O                0.7284512505        0.9762355131        0.1454545343
O                0.8545454357        0.2715487495        0.0237644979
O                0.1454545343        0.7284512505        0.9762355131
O                0.0237644979        0.8545454357        0.2715487495
O                0.9762355131        0.1454545343        0.7284512505
O                0.4805701030        0.7503295435        0.3329655989
O                0.5194298970        0.2496704565        0.6670343711
O                0.3329655989        0.4805701030        0.7503295435
O                0.6670343711        0.5194298970        0.2496704565
O                0.7503295435        0.3329655989        0.4805701030
O                0.2496704565        0.6670343711        0.5194298970
H                0.1485533957        0.0582182598        0.7973714805
H                0.8514465903        0.9417817322        0.2026285195
H                0.7973714805        0.1485533957        0.0582182598
H                0.2026285195        0.8514465903        0.9417817322
H                0.0582182598        0.7973714805        0.1485533957
H                0.9417817322        0.2026285195        0.8514465903
H                0.4289361827        0.2125643025        1.0068819843
H                0.5710638173        0.7874357125       -0.0068820053
H                1.0068819843        0.4289361827        0.2125643025
H               -0.0068820053        0.5710638173        0.7874357125
H                0.2125643025        1.0068819843        0.4289361827
H                0.7874357125       -0.0068820053        0.5710638173
H                0.7186967876        0.4086858565        0.3948541251
H                0.2813032124        0.5913141135        0.6051459049
H                0.3948541251        0.7186967876        0.4086858565
H                0.6051459049        0.2813032124        0.5913141135
H                0.4086858565        0.3948541251        0.7186967876
H                0.5913141135        0.6051459049        0.2813032124
H                0.7416157777        0.1955853311        0.3590169480
H                0.2583842223        0.8044146539        0.6409830520
H                0.3590169480        0.7416157777        0.1955853311
H                0.6409830520        0.2583842223        0.8044146539
H                0.1955853311        0.3590169480        0.7416157777
H                0.8044146539        0.6409830520        0.2583842223



     Writing config-only to output data dir ./iceII/iceII.save/ :
     XML data file
     NEW-OLD atomic charge density approx. for the potential

     total cpu time spent up to now is       21.5 secs

     per-process dynamical memory:    23.9 Mb

     Self-consistent Calculation

     iteration #  1     ecut=    90.00 Ry     beta= 0.70
     Davidson diagonalization with overlap
     ethr =  1.00E-06,  avg # of iterations =  7.1

     total cpu time spent up to now is       23.1 secs

     total energy              =    -413.90881120 Ry
     estimated scf accuracy    <       0.00283841 Ry

     iteration #  2     ecut=    90.00 Ry     beta= 0.70
     Davidson diagonalization with overlap
     ethr =  2.96E-06,  avg # of iterations =  2.0

     total cpu time spent up to now is       23.9 secs

     total energy              =    -413.90930409 Ry
     estimated scf accuracy    <       0.00027183 Ry

     iteration #  3     ecut=    90.00 Ry     beta= 0.70
     Davidson diagonalization with overlap
     ethr =  2.83E-07,  avg # of iterations =  2.0

     total cpu time spent up to now is       24.7 secs

     total energy              =    -413.90935971 Ry
     estimated scf accuracy    <       0.00002775 Ry

     iteration #  4     ecut=    90.00 Ry     beta= 0.70
     Davidson diagonalization with overlap
     ethr =  2.89E-08,  avg # of iterations =  2.0

     total cpu time spent up to now is       25.3 secs

     total energy              =    -413.90936337 Ry
     estimated scf accuracy    <       0.00000124 Ry

     iteration #  5     ecut=    90.00 Ry     beta= 0.70
     Davidson diagonalization with overlap
     ethr =  1.29E-09,  avg # of iterations =  2.1

     total cpu time spent up to now is       26.1 secs

     End of self-consistent calculation

          k = 0.0000 0.0000 0.0000 ( 25187 PWs)   bands (ev):

   -20.2845 -19.6000 -19.6000 -19.2637 -19.2637 -19.2276 -19.2276 -19.2070
   -19.1954 -18.7320 -18.7320 -18.2500  -7.6896  -7.5304  -7.5304  -7.3933
    -7.2380  -7.2380  -7.1414  -6.7797  -6.7797  -6.6714  -6.6714  -6.4920
    -6.4509  -5.1267  -5.1267  -4.4230  -4.4230  -4.3323  -4.3323  -3.8941
    -3.7934  -2.9887  -2.9887  -2.1749  -1.9271  -1.9271  -1.7728  -1.7142
    -1.6661  -1.6661  -1.5395  -1.5395  -1.4315  -1.4203  -1.3892  -1.3892

          k =-0.1498-0.0865 0.3111 ( 25267 PWs)   bands (ev):

   -20.1778 -19.6554 -19.5880 -19.4782 -19.4393 -19.3361 -19.1288 -19.0591
   -18.9721 -18.7439 -18.6794 -18.3431  -7.6274  -7.5860  -7.5250  -7.3861
    -7.2287  -7.2172  -7.0431  -6.8476  -6.7517  -6.6999  -6.5427  -6.4857
    -6.1776  -5.3381  -5.1236  -4.8507  -4.5811  -4.1859  -4.1345  -3.8072
    -3.7251  -2.9766  -2.8872  -2.3766  -2.0680  -1.9927  -1.8180  -1.8052
    -1.7253  -1.6513  -1.5726  -1.5454  -1.4760  -1.4362  -1.3871  -1.3296

          k = 0.2996 0.1730-0.6221 ( 25300 PWs)   bands (ev):

   -19.9246 -19.8645 -19.6386 -19.5811 -19.4601 -19.4239 -19.0579 -19.0151
   -18.7900 -18.7289 -18.5854 -18.5488  -7.6027  -7.5622  -7.4955  -7.3940
    -7.2635  -7.2372  -6.9475  -6.8460  -6.7461  -6.7267  -6.4040  -6.3932
    -5.7864  -5.6487  -5.1589  -5.1540  -4.5661  -4.4949  -3.9435  -3.7953
    -3.2181  -3.1801  -2.8292  -2.6415  -2.1783  -2.0402  -1.9010  -1.8443
    -1.7549  -1.6729  -1.6218  -1.5817  -1.5365  -1.4184  -1.3438  -1.2855

          k =-0.1498 0.0865 0.6221 ( 25314 PWs)   bands (ev):

   -19.9631 -19.7512 -19.7247 -19.5495 -19.5087 -19.4174 -19.0547 -18.9302
   -18.8689 -18.6880 -18.6546 -18.5079  -7.6047  -7.5559  -7.5188  -7.3850
    -7.2687  -7.1841  -6.9503  -6.9095  -6.8331  -6.5391  -6.4729  -6.4006
    -5.7882  -5.5522  -5.4314  -4.8842  -4.6817  -4.5097  -3.8974  -3.6632
    -3.5076  -2.9778  -2.8613  -2.6680  -2.1658  -2.0809  -1.8900  -1.7683
    -1.7420  -1.7081  -1.6529  -1.5570  -1.5508  -1.4260  -1.3566  -1.2701

          k = 0.2996 0.3460-0.3111 ( 25315 PWs)   bands (ev):

   -20.0365 -19.7952 -19.6753 -19.5697 -19.4555 -19.3685 -19.0620 -18.9258
   -18.8271 -18.7734 -18.6330 -18.4774  -7.6183  -7.5711  -7.4716  -7.4122
    -7.3277  -7.2377  -7.0482  -6.9802  -6.8492  -6.5176  -6.4762  -6.3610
    -5.9689  -5.5404  -5.2329  -4.9690  -4.8474  -4.2153  -3.8192  -3.6395
    -3.4139  -3.0973  -2.8643  -2.5943  -2.0403  -1.9951  -1.8842  -1.8165
    -1.7293  -1.6452  -1.6262  -1.5872  -1.5013  -1.4702  -1.3495  -1.2436

          k = 0.1498 0.2595 0.0000 ( 25287 PWs)   bands (ev):

   -20.2070 -19.7190 -19.6323 -19.4286 -19.3839 -19.2649 -19.1524 -19.0472
   -18.9757 -18.7504 -18.6944 -18.3259  -7.6644  -7.5790  -7.5138  -7.3647
    -7.2569  -7.2425  -7.2131  -6.9226  -6.7850  -6.6548  -6.5284  -6.4213
    -6.3239  -5.2330  -5.1136  -4.8589  -4.7657  -4.0818  -3.8857  -3.7762
    -3.6351  -3.0517  -2.9855  -2.2575  -1.9343  -1.8995  -1.8622  -1.7809
    -1.7179  -1.6820  -1.5568  -1.5160  -1.4806  -1.4582  -1.3358  -1.3137

          k = 0.2996-0.1730-1.2442 ( 25290 PWs)   bands (ev):

   -20.0196 -19.9639 -19.6587 -19.4983 -19.3889 -19.2919 -19.0674 -19.0177
   -18.8321 -18.8042 -18.5340 -18.5035  -7.6461  -7.5865  -7.4537  -7.3764
    -7.3719  -7.2907  -7.1304  -7.0485  -6.8064  -6.6689  -6.4546  -6.3695
    -5.7986  -5.7852  -5.2287  -5.0190  -4.6032  -4.2102  -3.6799  -3.5259
    -3.3939  -3.3002  -2.7804  -2.5645  -1.9664  -1.8849  -1.8377  -1.8356
    -1.7460  -1.6287  -1.6005  -1.5564  -1.5307  -1.4736  -1.2772  -1.2751

          k = 0.0000 0.0000 0.9332 ( 25346 PWs)   bands (ev):

   -19.8735 -19.8735 -19.7930 -19.6489 -19.4027 -19.4027 -18.9410 -18.9410
   -18.7573 -18.6690 -18.6486 -18.6486  -7.5667  -7.5667  -7.5005  -7.3887
    -7.3344  -7.3344  -7.0205  -6.9622  -6.9622  -6.3893  -6.3893  -6.3267
    -5.7263  -5.7263  -5.5775  -5.0372  -4.5372  -4.5372  -3.5682  -3.4363
    -3.4363  -2.9654  -2.9654  -2.8816  -1.9871  -1.9871  -1.8350  -1.7831
    -1.6924  -1.6924  -1.6044  -1.6044  -1.5800  -1.4327  -1.4327  -1.2109

          k = 0.4494 0.2595 0.0000 ( 25272 PWs)   bands (ev):

   -20.0627 -19.8171 -19.8078 -19.4965 -19.3123 -19.2770 -19.0994 -19.0699
   -18.8365 -18.6991 -18.6415 -18.4603  -7.6261  -7.5870  -7.5015  -7.4012
    -7.3247  -7.2747  -7.1343  -7.0120  -6.9109  -6.5587  -6.4464  -6.4181
    -5.9676  -5.4638  -5.4257  -4.9949  -4.5735  -4.2041  -3.6862  -3.6723
    -3.3562  -3.0839  -2.9493  -2.5210  -1.9364  -1.9138  -1.8419  -1.8317
    -1.7420  -1.6689  -1.5850  -1.5651  -1.4953  -1.4267  -1.3640  -1.2404

          k = 0.2996 0.1730 0.3111 ( 25307 PWs)   bands (ev):

   -20.1048 -19.7276 -19.6104 -19.5668 -19.4373 -19.3566 -19.0778 -19.0298
   -18.9134 -18.7328 -18.6398 -18.4020  -7.6327  -7.5761  -7.5203  -7.3712
    -7.2918  -7.1752  -7.0861  -6.9168  -6.7554  -6.6846  -6.5756  -6.4316
    -6.0111  -5.3209  -5.1133  -4.9562  -4.8480  -4.2385  -3.9136  -3.6931
    -3.5842  -3.0081  -2.8952  -2.4055  -2.0746  -2.0171  -1.9057  -1.8674
    -1.7316  -1.7066  -1.5770  -1.5508  -1.4710  -1.4058  -1.3382  -1.2923

          k = 0.4494-0.2595-0.9332 ( 25297 PWs)   bands (ev):

   -19.9160 -19.9058 -19.7081 -19.5970 -19.4250 -19.3143 -19.1332 -18.9965
   -18.7870 -18.7021 -18.6257 -18.4861  -7.6458  -7.5479  -7.5011  -7.3781
    -7.3273  -7.2202  -7.0705  -6.9304  -6.7960  -6.7347  -6.5016  -6.4297
    -5.6309  -5.5962  -5.2159  -5.0746  -4.7530  -4.2893  -3.9359  -3.6087
    -3.2465  -3.0462  -2.9598  -2.4998  -2.0646  -2.0289  -1.9861  -1.8729
    -1.8277  -1.7271  -1.5431  -1.5015  -1.4830  -1.4272  -1.3328  -1.2356

          k = 0.2996-0.3460-0.6221 ( 25300 PWs)   bands (ev):

   -19.8733 -19.8073 -19.6837 -19.6560 -19.4764 -19.4598 -19.0228 -19.0006
   -18.7696 -18.7507 -18.5953 -18.5206  -7.6610  -7.5146  -7.4472  -7.3818
    -7.3411  -7.1825  -6.9753  -6.9575  -6.7000  -6.6868  -6.4711  -6.4598
    -5.5729  -5.4726  -5.2392  -5.1577  -4.7284  -4.6634  -3.7509  -3.6543
    -3.2743  -3.2262  -2.8587  -2.5567  -2.1951  -2.0620  -1.9910  -1.9105
    -1.8155  -1.6974  -1.5746  -1.5564  -1.5252  -1.3895  -1.3501  -1.2198

          k = 0.0000 0.0000-1.8663 ( 25356 PWs)   bands (ev):

   -19.8095 -19.7173 -19.6835 -19.6835 -19.5815 -19.5815 -18.8978 -18.8978
   -18.8441 -18.8441 -18.5829 -18.4902  -7.7092  -7.3976  -7.3976  -7.3781
    -7.3781  -7.3053  -7.0070  -6.9428  -6.6015  -6.6015  -6.5991  -6.5991
    -5.3535  -5.2865  -5.1051  -5.1051  -4.9959  -4.9959  -3.4642  -3.4642
    -3.4010  -3.4010  -2.8367  -2.4969  -2.1822  -2.0688  -2.0688  -1.9795
    -1.9795  -1.6423  -1.5661  -1.4783  -1.4783  -1.3968  -1.3968  -1.1667

          k = 0.2996-0.3460 0.3111 ( 25315 PWs)   bands (ev):

   -20.0354 -19.8074 -19.6409 -19.5941 -19.4538 -19.3719 -19.0534 -18.9109
   -18.8794 -18.7274 -18.6478 -18.4771  -7.6185  -7.5656  -7.4748  -7.3730
    -7.3584  -7.2451  -7.1090  -6.9219  -6.8318  -6.5600  -6.4499  -6.3777
    -5.9521  -5.4922  -5.3338  -4.9384  -4.7670  -4.2939  -3.9348  -3.4981
    -3.3091  -3.1274  -3.0065  -2.5311  -2.0577  -1.9475  -1.9005  -1.8157
    -1.7575  -1.6479  -1.6202  -1.5787  -1.5346  -1.4280  -1.3529  -1.2510

     highest occupied level (ev):    -1.1667

!    total energy              =    -413.90936367 Ry
     estimated scf accuracy    <       0.00000007 Ry

     The total energy is the sum of the following terms:
     one-electron contribution =    -261.82353230 Ry
     hartree contribution      =     168.68661084 Ry
     xc contribution           =    -101.81257744 Ry
     ewald contribution        =    -218.95986477 Ry

     convergence has been achieved in   5 iterations

     Forces acting on atoms (cartesian axes, Ry/au):

     atom    1 type  2   force =    -0.01330354    0.02219093    0.01775183
     atom    2 type  2   force =     0.01330354   -0.02219093   -0.01775183
     atom    3 type  2   force =    -0.01256614   -0.02261667    0.01775183
     atom    4 type  2   force =     0.01256614    0.02261667   -0.01775183
     atom    5 type  2   force =     0.02586968    0.00042574    0.01775183
     atom    6 type  2   force =    -0.02586968   -0.00042574   -0.01775183
     atom    7 type  2   force =    -0.02149242    0.01407470   -0.01732602
     atom    8 type  2   force =     0.02149242   -0.01407470    0.01732602
     atom    9 type  2   force =    -0.00144284   -0.02565034   -0.01732602
     atom   10 type  2   force =     0.00144284    0.02565034    0.01732602
     atom   11 type  2   force =     0.02293526    0.01157563   -0.01732602
     atom   12 type  2   force =    -0.02293526   -0.01157563    0.01732602
     atom   13 type  1   force =    -0.00343024   -0.00981918   -0.02535353
     atom   14 type  1   force =     0.00343024    0.00981918    0.02535353
     atom   15 type  1   force =     0.01021878    0.00193892   -0.02535353
     atom   16 type  1   force =    -0.01021878   -0.00193892    0.02535353
     atom   17 type  1   force =    -0.00678854    0.00788026   -0.02535353
     atom   18 type  1   force =     0.00678854   -0.00788026    0.02535353
     atom   19 type  1   force =     0.01905371   -0.01866886   -0.00272441
     atom   20 type  1   force =    -0.01905371    0.01866886    0.00272441
     atom   21 type  1   force =     0.00664085    0.02583543   -0.00272441
     atom   22 type  1   force =    -0.00664085   -0.02583543    0.00272441
     atom   23 type  1   force =    -0.02569456   -0.00716656   -0.00272441
     atom   24 type  1   force =     0.02569456    0.00716656    0.00272441
     atom   25 type  1   force =    -0.00806080   -0.00240309    0.01217672
     atom   26 type  1   force =     0.00806080    0.00240309   -0.01217672
     atom   27 type  1   force =     0.00611154   -0.00577931    0.01217672
     atom   28 type  1   force =    -0.00611154    0.00577931   -0.01217672
     atom   29 type  1   force =     0.00194926    0.00818241    0.01217672
     atom   30 type  1   force =    -0.00194926   -0.00818241   -0.01217672
     atom   31 type  1   force =    -0.01735277   -0.00930596    0.00875383
     atom   32 type  1   force =     0.01735277    0.00930596   -0.00875383
     atom   33 type  1   force =     0.01673558   -0.01037496    0.00875383
     atom   34 type  1   force =    -0.01673558    0.01037496   -0.00875383
     atom   35 type  1   force =     0.00061719    0.01968092    0.00875383
     atom   36 type  1   force =    -0.00061719   -0.01968092   -0.00875383

     Total force =     0.156808     Total SCF correction =     0.000205


     Computing stress (Cartesian axis) and pressure

          total   stress  (Ry/bohr**3)                   (kbar)     P=       16.99
   0.00007959  -0.00000000   0.00000000           11.71       -0.00        0.00
   0.00000000   0.00007959   0.00000000            0.00       11.71        0.00
  -0.00000000   0.00000000   0.00018739           -0.00        0.00       27.57

     Energy error            =      5.3E-02 Ry
     Gradient error          =      2.6E-02 Ry/Bohr

     number of scf cycles    =   3
     number of bfgs steps    =   2

     energy             old  =    -413.8561539951 Ry
     energy             new  =    -413.9093636713 Ry

     CASE: energy            _new < energy            _old

     new trust radius        =       0.0766238792 bohr
     new conv_thr            =       0.0000001000 Ry


ATOMIC_POSITIONS (crystal)
O                0.2717433700        0.0275517881        0.8569462413
O                0.7282566300        0.9724482229        0.1430537287
O                0.8569462413        0.2717433700        0.0275517881
O                0.1430537287        0.7282566300        0.9724482229
O                0.0275517881        0.8569462413        0.2717433700
O                0.9724482229        0.1430537287        0.7282566300
O                0.4767600550        0.7490283605        0.3314717237
O                0.5232399450        0.2509716395        0.6685282463
O                0.3314717237        0.4767600550        0.7490283605
O                0.6685282463        0.5232399450        0.2509716395
O                0.7490283605        0.3314717237        0.4767600550
O                0.2509716395        0.6685282463        0.5232399450
H                0.1412559822        0.0513920878        0.7915078964
H                0.8587440038        0.9486079042        0.2084921036
H                0.7915078964        0.1412559822        0.0513920878
H                0.2084921036        0.8587440038        0.9486079042
H                0.0513920878        0.7915078964        0.1412559822
H                0.9486079042        0.2084921036        0.8587440038
H                0.4344841716        0.2127572824        1.0083786091
H                0.5655158284        0.7872427326       -0.0083786301
H                1.0083786091        0.4344841716        0.2127572824
H               -0.0083786301        0.5655158284        0.7872427326
H                0.2127572824        1.0083786091        0.4344841716
H                0.7872427326       -0.0083786301        0.5655158284
H                0.7199217340        0.4121236761        0.3970830799
H                0.2800782660        0.5878762939        0.6029169501
H                0.3970830799        0.7199217340        0.4121236761
H                0.6029169501        0.2800782660        0.5878762939
H                0.4121236761        0.3970830799        0.7199217340
H                0.5878762939        0.6029169501        0.2800782660
H                0.7421650125        0.1943731727        0.3615645927
H                0.2578349875        0.8056268123        0.6384354073
H                0.3615645927        0.7421650125        0.1943731727
H                0.6384354073        0.2578349875        0.8056268123
H                0.1943731727        0.3615645927        0.7421650125
H                0.8056268123        0.6384354073        0.2578349875



     Writing config-only to output data dir ./iceII/iceII.save/ :
     XML data file
     NEW-OLD atomic charge density approx. for the potential

     total cpu time spent up to now is       27.1 secs

     per-process dynamical memory:    23.9 Mb

     Self-consistent Calculation

     iteration #  1     ecut=    90.00 Ry     beta= 0.70
     Davidson diagonalization with overlap
     ethr =  1.00E-06,  avg # of iterations =  8.0

     total cpu time spent up to now is       28.8 secs

     total energy              =    -413.93597418 Ry
     estimated scf accuracy    <       0.00338667 Ry

     iteration #  2     ecut=    90.00 Ry     beta= 0.70
     Davidson diagonalization with overlap
     ethr =  3.53E-06,  avg # of iterations =  2.0

     total cpu time spent up to now is       29.6 secs

     total energy              =    -413.93656979 Ry
     estimated scf accuracy    <       0.00036627 Ry

     iteration #  3     ecut=    90.00 Ry     beta= 0.70
     Davidson diagonalization with overlap
     ethr =  3.82E-07,  avg # of iterations =  2.0

     total cpu time spent up to now is       30.4 secs

     total energy              =    -413.93664713 Ry
     estimated scf accuracy    <       0.00002874 Ry

     iteration #  4     ecut=    90.00 Ry     beta= 0.70
     Davidson diagonalization with overlap
     ethr =  2.99E-08,  avg # of iterations =  2.0

     total cpu time spent up to now is       31.0 secs

     total energy              =    -413.93664991 Ry
     estimated scf accuracy    <       0.00000174 Ry

     iteration #  5     ecut=    90.00 Ry     beta= 0.70
     Davidson diagonalization with overlap
     ethr =  1.81E-09,  avg # of iterations =  2.1

     total cpu time spent up to now is       31.8 secs

     total energy              =    -413.93665047 Ry
     estimated scf accuracy    <       0.00000020 Ry

     iteration #  6     ecut=    90.00 Ry     beta= 0.70
     Davidson diagonalization with overlap
     ethr =  2.08E-10,  avg # of iterations =  2.1

     total cpu time spent up to now is       32.6 secs

     End of self-consistent calculation

          k = 0.0000 0.0000 0.0000 ( 25187 PWs)   bands (ev):

   -20.2781 -19.6101 -19.6101 -19.2366 -19.2366 -19.2354 -19.2354 -19.1988
   -19.1902 -18.7119 -18.7119 -18.2525  -7.8629  -7.6650  -7.6650  -7.5716
    -7.4600  -7.4600  -7.1263  -6.9980  -6.9980  -6.9189  -6.9189  -6.7317
    -6.4911  -4.9827  -4.9827  -4.3343  -4.3343  -4.1210  -4.1210  -3.7517
    -3.7297  -2.8794  -2.8794  -2.0838  -1.9355  -1.9355  -1.8003  -1.6834
    -1.6746  -1.6746  -1.5275  -1.5275  -1.4683  -1.3697  -1.3697  -1.3593

          k =-0.1498-0.0865 0.3111 ( 25267 PWs)   bands (ev):

   -20.1740 -19.6631 -19.6130 -19.4518 -19.4087 -19.3243 -19.1326 -19.0583
   -18.9768 -18.7220 -18.6613 -18.3392  -7.7999  -7.7228  -7.6667  -7.5619
    -7.4489  -7.3971  -7.1542  -7.0572  -6.9425  -6.9016  -6.8120  -6.7488
    -6.1689  -5.2067  -5.0035  -4.6952  -4.4977  -4.0920  -3.9096  -3.6973
    -3.5487  -2.8800  -2.7781  -2.2786  -2.0519  -1.9938  -1.8387  -1.7915
    -1.7387  -1.6631  -1.5405  -1.5216  -1.4794  -1.4186  -1.3705  -1.3279

          k = 0.2996 0.1730-0.6221 ( 25300 PWs)   bands (ev):

   -19.9449 -19.8479 -19.6574 -19.5466 -19.4531 -19.3927 -19.0813 -19.0012
   -18.8152 -18.6997 -18.5951 -18.5078  -7.7433  -7.7235  -7.6443  -7.5831
    -7.4716  -7.3999  -7.1111  -7.0436  -6.9571  -6.9418  -6.6853  -6.6637
    -5.6784  -5.5365  -5.0620  -5.0347  -4.4689  -4.4019  -3.7210  -3.5994
    -3.1024  -3.0538  -2.7263  -2.5713  -2.1155  -2.0431  -1.9121  -1.8346
    -1.7644  -1.6451  -1.6197  -1.5980  -1.5162  -1.4209  -1.3151  -1.2908

          k =-0.1498 0.0865 0.6221 ( 25314 PWs)   bands (ev):

   -19.9720 -19.7556 -19.7218 -19.5391 -19.4787 -19.3990 -19.0611 -18.9473
   -18.8647 -18.6790 -18.6419 -18.4828  -7.7459  -7.7047  -7.6769  -7.5811
    -7.4632  -7.3705  -7.1001  -7.0946  -7.0336  -6.7849  -6.7396  -6.6767
    -5.6905  -5.4155  -5.3335  -4.7787  -4.5861  -4.4021  -3.7040  -3.4626
    -3.3547  -2.8794  -2.7760  -2.5745  -2.1206  -2.0676  -1.9050  -1.7715
    -1.7342  -1.7134  -1.6287  -1.5607  -1.5405  -1.4245  -1.3357  -1.2679

          k = 0.2996 0.3460-0.3111 ( 25315 PWs)   bands (ev):

   -20.0354 -19.7998 -19.6939 -19.5402 -19.4298 -19.3565 -19.0679 -18.9473
   -18.8036 -18.7755 -18.6099 -18.4636  -7.7581  -7.7393  -7.6219  -7.5762
    -7.5007  -7.4057  -7.2409  -7.1846  -7.0585  -6.7704  -6.7327  -6.6456
    -5.8491  -5.4020  -5.0778  -4.8834  -4.7397  -4.1085  -3.5986  -3.5009
    -3.3168  -2.9911  -2.7417  -2.4845  -2.0135  -1.9976  -1.8962  -1.8202
    -1.7301  -1.6433  -1.6057  -1.5931  -1.5067  -1.4651  -1.3190  -1.2347

          k = 0.1498 0.2595 0.0000 ( 25287 PWs)   bands (ev):

   -20.2014 -19.7258 -19.6407 -19.4213 -19.3645 -19.2452 -19.1563 -19.0448
   -18.9784 -18.7309 -18.6712 -18.3250  -7.8305  -7.7087  -7.6600  -7.5407
    -7.4496  -7.4423  -7.3317  -7.1300  -7.0067  -6.8758  -6.7860  -6.7031
    -6.2452  -5.0777  -4.9949  -4.7272  -4.6332  -3.9476  -3.7455  -3.6089
    -3.5570  -2.9269  -2.8778  -2.1420  -1.9406  -1.9055  -1.8865  -1.7888
    -1.7149  -1.6656  -1.5526  -1.5246  -1.5010  -1.4149  -1.3178  -1.2909

          k = 0.2996-0.1730-1.2442 ( 25290 PWs)   bands (ev):

   -20.0141 -19.9655 -19.6666 -19.4898 -19.3750 -19.2696 -19.0820 -19.0119
   -18.8381 -18.7754 -18.5310 -18.4848  -7.7900  -7.7289  -7.6220  -7.5531
    -7.5003  -7.4618  -7.3416  -7.2462  -7.0413  -6.8748  -6.7326  -6.6559
    -5.6736  -5.6436  -5.0694  -4.9342  -4.4730  -4.0781  -3.5384  -3.4570
    -3.2431  -3.1562  -2.6828  -2.4261  -1.9705  -1.8982  -1.8448  -1.8431
    -1.7477  -1.6185  -1.5893  -1.5554  -1.5482  -1.4528  -1.2603  -1.2522

          k = 0.0000 0.0000 0.9332 ( 25346 PWs)   bands (ev):

   -19.8704 -19.8704 -19.8280 -19.5947 -19.3940 -19.3940 -18.9406 -18.9406
   -18.8141 -18.6361 -18.6361 -18.6047  -7.7283  -7.7283  -7.6342  -7.5899
    -7.4925  -7.4925  -7.2320  -7.1560  -7.1560  -6.6688  -6.6688  -6.6130
    -5.5695  -5.5695  -5.3766  -4.9964  -4.4365  -4.4365  -3.3372  -3.3138
    -3.3138  -2.8469  -2.8469  -2.7746  -1.9797  -1.9797  -1.8372  -1.8175
    -1.6829  -1.6829  -1.6185  -1.6185  -1.5663  -1.4058  -1.4058  -1.1978

          k = 0.4494 0.2595 0.0000 ( 25272 PWs)   bands (ev):

   -20.0587 -19.8160 -19.8146 -19.4723 -19.3266 -19.2608 -19.0985 -19.0470
   -18.8536 -18.6861 -18.6189 -18.4505  -7.7791  -7.7211  -7.6631  -7.5351
    -7.5052  -7.4533  -7.3384  -7.2073  -7.1253  -6.7981  -6.7174  -6.6985
    -5.8429  -5.3093  -5.2710  -4.9222  -4.4384  -4.0669  -3.5907  -3.5431
    -3.2155  -2.9505  -2.8375  -2.3933  -1.9394  -1.9147  -1.8626  -1.8451
    -1.7359  -1.6591  -1.5933  -1.5698  -1.4827  -1.4136  -1.3511  -1.2137

          k = 0.2996 0.1730 0.3111 ( 25307 PWs)   bands (ev):

   -20.1022 -19.7352 -19.6333 -19.5411 -19.4123 -19.3348 -19.0858 -19.0452
   -18.8849 -18.7389 -18.6168 -18.3924  -7.7790  -7.7259  -7.6629  -7.5302
    -7.4884  -7.3513  -7.2794  -7.0714  -6.9783  -6.9332  -6.8095  -6.7075
    -5.9579  -5.2097  -5.0299  -4.7637  -4.7260  -4.0998  -3.7408  -3.5715
    -3.4675  -2.9072  -2.7883  -2.2893  -2.0565  -2.0137  -1.9117  -1.8478
    -1.7409  -1.6976  -1.5713  -1.5431  -1.4809  -1.4053  -1.3351  -1.2630

          k = 0.4494-0.2595-0.9332 ( 25297 PWs)   bands (ev):

   -19.9151 -19.9104 -19.7162 -19.5722 -19.4131 -19.3014 -19.1317 -18.9952
   -18.7648 -18.7249 -18.6180 -18.4579  -7.7628  -7.7085  -7.6526  -7.5316
    -7.4919  -7.4033  -7.2763  -7.1400  -7.0076  -6.9581  -6.7656  -6.7073
    -5.5774  -5.4424  -5.0736  -5.0000  -4.5871  -4.1043  -3.8187  -3.5070
    -3.1248  -2.9492  -2.8539  -2.3626  -2.0448  -2.0164  -1.9739  -1.8551
    -1.8142  -1.7403  -1.5506  -1.5053  -1.4979  -1.4264  -1.3268  -1.2043

          k = 0.2996-0.3460-0.6221 ( 25300 PWs)   bands (ev):

   -19.8969 -19.7938 -19.6973 -19.6318 -19.4578 -19.4302 -19.0419 -18.9989
   -18.7634 -18.7257 -18.6314 -18.4714  -7.7759  -7.6653  -7.6115  -7.5684
    -7.5247  -7.3396  -7.1736  -7.1385  -6.9279  -6.9144  -6.7441  -6.7317
    -5.4675  -5.4050  -5.1242  -5.0492  -4.5735  -4.5090  -3.5890  -3.4913
    -3.1566  -3.1174  -2.7908  -2.4640  -2.1161  -2.0523  -1.9848  -1.8929
    -1.7843  -1.7082  -1.5760  -1.5569  -1.5352  -1.3989  -1.3555  -1.1922

          k = 0.0000 0.0000-1.8663 ( 25356 PWs)   bands (ev):

   -19.8361 -19.7128 -19.7128 -19.6667 -19.5410 -19.5410 -18.9310 -18.9310
   -18.7961 -18.7961 -18.6346 -18.4387  -7.7995  -7.5711  -7.5711  -7.5608
    -7.5608  -7.3903  -7.2258  -7.1476  -6.8579  -6.8579  -6.8514  -6.8514
    -5.3715  -5.2232  -4.9515  -4.9515  -4.8015  -4.8015  -3.3101  -3.3101
    -3.3065  -3.3065  -2.7956  -2.3984  -2.0555  -2.0555  -2.0516  -1.9588
    -1.9588  -1.6650  -1.5604  -1.4916  -1.4916  -1.4084  -1.4084  -1.1334

          k = 0.2996-0.3460 0.3111 ( 25315 PWs)   bands (ev):

   -20.0336 -19.8170 -19.6609 -19.5564 -19.4319 -19.3616 -19.0480 -18.9483
   -18.8631 -18.7058 -18.6353 -18.4613  -7.7700  -7.7176  -7.6311  -7.5445
    -7.5219  -7.4208  -7.2873  -7.1345  -7.0475  -6.7787  -6.7279  -6.6562
    -5.8512  -5.3747  -5.1504  -4.8330  -4.6831  -4.1867  -3.7345  -3.3490
    -3.1882  -3.0231  -2.8951  -2.4203  -2.0309  -1.9511  -1.9073  -1.8224
    -1.7466  -1.6523  -1.6042  -1.5788  -1.5479  -1.4206  -1.3248  -1.2401

     highest occupied level (ev):    -1.1334

!    total energy              =    -413.93665052 Ry
     estimated scf accuracy    <          8.2E-09 Ry

     The total energy is the sum of the following terms:
     one-electron contribution =    -261.81498853 Ry
     hartree contribution      =     168.68702519 Ry
     xc contribution           =    -101.89780371 Ry
     ewald contribution        =    -218.91088347 Ry

     convergence has been achieved in   6 iterations

     Forces acting on atoms (cartesian axes, Ry/au):

     atom    1 type  2   force =    -0.00316068    0.00390248    0.00606273
     atom    2 type  2   force =     0.00316068   -0.00390248   -0.00606273
     atom    3 type  2   force =    -0.00179931   -0.00468848    0.00606273
     atom    4 type  2   force =     0.00179931    0.00468848   -0.00606273
     atom    5 type  2   force =     0.00495999    0.00078599    0.00606273
     atom    6 type  2   force =    -0.00495999   -0.00078599   -0.00606273
     atom    7 type  2   force =    -0.00713439   -0.00606927   -0.00407726
     atom    8 type  2   force =     0.00713439    0.00606927    0.00407726
     atom    9 type  2   force =     0.00882333   -0.00314393   -0.00407726
     atom   10 type  2   force =    -0.00882333    0.00314393    0.00407726
     atom   11 type  2   force =    -0.00168894    0.00921320   -0.00407726
     atom   12 type  2   force =     0.00168894   -0.00921320    0.00407726
     atom   13 type  1   force =    -0.00367897   -0.00590698   -0.00475391
     atom   14 type  1   force =     0.00367897    0.00590698    0.00475391
     atom   15 type  1   force =     0.00695508   -0.00023259   -0.00475391
     atom   16 type  1   force =    -0.00695508    0.00023259    0.00475391
     atom   17 type  1   force =    -0.00327611    0.00613957   -0.00475391
     atom   18 type  1   force =     0.00327611   -0.00613957    0.00475391
     atom   19 type  1   force =     0.00948879   -0.00126120   -0.00750872
     atom   20 type  1   force =    -0.00948879    0.00126120    0.00750872
     atom   21 type  1   force =    -0.00365216    0.00884813   -0.00750872
     atom   22 type  1   force =     0.00365216   -0.00884813    0.00750872
     atom   23 type  1   force =    -0.00583663   -0.00758693   -0.00750872
     atom   24 type  1   force =     0.00583663    0.00758693    0.00750872
     atom   25 type  1   force =     0.00214756   -0.00355088    0.00601035
     atom   26 type  1   force =    -0.00214756    0.00355088   -0.00601035
     atom   27 type  1   force =     0.00200137    0.00363528    0.00601035
     atom   28 type  1   force =    -0.00200137   -0.00363528   -0.00601035
     atom   29 type  1   force =    -0.00414893   -0.00008440    0.00601035
     atom   30 type  1   force =     0.00414893    0.00008440   -0.00601035
     atom   31 type  1   force =    -0.00102762   -0.00567041   -0.00152029
     atom   32 type  1   force =     0.00102762    0.00567041    0.00152029
     atom   33 type  1   force =     0.00542453    0.00194526   -0.00152029
     atom   34 type  1   force =    -0.00542453   -0.00194526    0.00152029
     atom   35 type  1   force =    -0.00439691    0.00372515   -0.00152029
     atom   36 type  1   force =     0.00439691   -0.00372515    0.00152029

     Total force =     0.053342     Total SCF correction =     0.000178


     Computing stress (Cartesian axis) and pressure

          total   stress  (Ry/bohr**3)                   (kbar)     P=       23.08
   0.00014016   0.00000000   0.00000000           20.62        0.00        0.00
  -0.00000000   0.00014016   0.00000000           -0.00       20.62        0.00
  -0.00000000   0.00000000   0.00019043           -0.00        0.00       28.01

     Energy error            =      2.7E-02 Ry
     Gradient error          =      9.5E-03 Ry/Bohr

     number of scf cycles    =   4
     number of bfgs steps    =   3

     energy             old  =    -413.9093636713 Ry
     energy             new  =    -413.9366505233 Ry

     CASE: energy            _new < energy            _old

     new trust radius        =       0.0247185090 bohr
     new conv_thr            =       0.0000000949 Ry


ATOMIC_POSITIONS (crystal)
O                0.2720448915        0.0288814961        0.8579579021
O                0.7279551085        0.9711185149        0.1420420679
O                0.8579579021        0.2720448915        0.0288814961
O                0.1420420679        0.7279551085        0.9711185149
O                0.0288814961        0.8579579021        0.2720448915
O                0.9711185149        0.1420420679        0.7279551085
O                0.4756898593        0.7480136533        0.3313671457
O                0.5243101407        0.2519863467        0.6686328243
O                0.3313671457        0.4756898593        0.7480136533
O                0.6686328243        0.5243101407        0.2519863467
O                0.7480136533        0.3313671457        0.4756898593
O                0.2519863467        0.6686328243        0.5243101407
H                0.1390242620        0.0491181313        0.7900472312
H                0.8609757240        0.9508818607        0.2099527688
H                0.7900472312        0.1390242620        0.0491181313
H                0.2099527688        0.8609757240        0.9508818607
H                0.0491181313        0.7900472312        0.1390242620
H                0.9508818607        0.2099527688        0.8609757240
H                0.4356562713        0.2122428318        1.0077052118
H                0.5643437287        0.7877571832       -0.0077052328
H                1.0077052118        0.4356562713        0.2122428318
H               -0.0077052328        0.5643437287        0.7877571832
H                0.2122428318        1.0077052118        0.4356562713
H                0.7877571832       -0.0077052328        0.5643437287
H                0.7209898564        0.4133946628        0.3980300698
H                0.2790101436        0.5866053072        0.6019699602
H                0.3980300698        0.7209898564        0.4133946628
H                0.6019699602        0.2790101436        0.5866053072
H                0.4133946628        0.3980300698        0.7209898564
H                0.5866053072        0.6019699602        0.2790101436
H                0.7422128539        0.1933886502        0.3619429465
H                0.2577871461        0.8066113348        0.6380570535
H                0.3619429465        0.7422128539        0.1933886502
H                0.6380570535        0.2577871461        0.8066113348
H                0.1933886502        0.3619429465        0.7422128539
H                0.8066113348        0.6380570535        0.2577871461



     Writing config-only to output data dir ./iceII/iceII.save/ :
     XML data file
     NEW-OLD atomic charge density approx. for the potential

     total cpu time spent up to now is       33.6 secs

     per-process dynamical memory:    23.9 Mb

     Self-consistent Calculation

     iteration #  1     ecut=    90.00 Ry     beta= 0.70
     Davidson diagonalization with overlap
     ethr =  1.00E-06,  avg # of iterations =  5.0

     total cpu time spent up to now is       34.8 secs

     total energy              =    -413.93922678 Ry
     estimated scf accuracy    <       0.00053706 Ry

     iteration #  2     ecut=    90.00 Ry     beta= 0.70
     Davidson diagonalization with overlap
     ethr =  5.59E-07,  avg # of iterations =  2.0

     total cpu time spent up to now is       35.6 secs

     total energy              =    -413.93934555 Ry
     estimated scf accuracy    <       0.00005107 Ry

     iteration #  3     ecut=    90.00 Ry     beta= 0.70
     Davidson diagonalization with overlap
     ethr =  5.32E-08,  avg # of iterations =  2.0

     total cpu time spent up to now is       36.3 secs

     total energy              =    -413.93935688 Ry
     estimated scf accuracy    <       0.00000416 Ry

     iteration #  4     ecut=    90.00 Ry     beta= 0.70
     Davidson diagonalization with overlap
     ethr =  4.33E-09,  avg # of iterations =  2.1

     total cpu time spent up to now is       37.1 secs

     total energy              =    -413.93935757 Ry
     estimated scf accuracy    <       0.00000031 Ry

     iteration #  5     ecut=    90.00 Ry     beta= 0.70
     Davidson diagonalization with overlap
     ethr =  3.20E-10,  avg # of iterations =  3.1

     total cpu time spent up to now is       37.9 secs

     End of self-consistent calculation

          k = 0.0000 0.0000 0.0000 ( 25187 PWs)   bands (ev):

   -20.2698 -19.5970 -19.5970 -19.2475 -19.2475 -19.2193 -19.2193 -19.2076
   -19.1762 -18.7213 -18.7213 -18.2581  -7.8542  -7.7054  -7.7054  -7.6262
    -7.4731  -7.4731  -7.1625  -7.0633  -7.0633  -7.0258  -7.0258  -6.8637
    -6.4562  -4.9524  -4.9524  -4.2811  -4.2811  -4.0611  -4.0611  -3.7400
    -3.6823  -2.8431  -2.8431  -2.0484  -1.9207  -1.9207  -1.8136  -1.6909
    -1.6909  -1.6696  -1.5524  -1.5524  -1.4882  -1.3560  -1.3560  -1.3348

          k =-0.1498-0.0865 0.3111 ( 25267 PWs)   bands (ev):

   -20.1649 -19.6477 -19.5925 -19.4555 -19.4211 -19.3245 -19.1251 -19.0497
   -18.9657 -18.7345 -18.6723 -18.3460  -7.7996  -7.7453  -7.6987  -7.6124
    -7.4651  -7.4218  -7.2105  -7.1351  -7.0464  -6.9689  -6.9129  -6.8506
    -6.1512  -5.1738  -4.9767  -4.6455  -4.4407  -4.0581  -3.8534  -3.6566
    -3.5016  -2.8449  -2.7443  -2.2369  -2.0333  -1.9759  -1.8447  -1.7913
    -1.7503  -1.6748  -1.5405  -1.5365  -1.4741  -1.4285  -1.3685  -1.3315

          k = 0.2996 0.1730-0.6221 ( 25300 PWs)   bands (ev):

   -19.9260 -19.8445 -19.6374 -19.5496 -19.4560 -19.4037 -19.0622 -18.9968
   -18.8050 -18.7138 -18.5928 -18.5295  -7.7627  -7.7407  -7.6765  -7.5978
    -7.4908  -7.4311  -7.1919  -7.1397  -7.0372  -7.0170  -6.7857  -6.7634
    -5.6517  -5.5079  -5.0305  -4.9939  -4.4200  -4.3547  -3.6706  -3.5563
    -3.0614  -3.0137  -2.6938  -2.5282  -2.0832  -2.0245  -1.9084  -1.8400
    -1.7635  -1.6536  -1.6324  -1.5831  -1.5276  -1.4279  -1.3279  -1.3049

          k =-0.1498 0.0865 0.6221 ( 25314 PWs)   bands (ev):

   -19.9577 -19.7413 -19.7120 -19.5379 -19.4870 -19.4022 -19.0507 -18.9310
   -18.8627 -18.6866 -18.6507 -18.4973  -7.7543  -7.7327  -7.7020  -7.6095
    -7.4786  -7.3968  -7.1888  -7.1633  -7.1245  -6.8762  -6.8341  -6.7767
    -5.6685  -5.3784  -5.3016  -4.7400  -4.5417  -4.3535  -3.6585  -3.4150
    -3.3097  -2.8428  -2.7442  -2.5293  -2.0934  -2.0462  -1.9006  -1.7771
    -1.7371  -1.7171  -1.6326  -1.5605  -1.5427  -1.4350  -1.3474  -1.2826

          k = 0.2996 0.3460-0.3111 ( 25315 PWs)   bands (ev):

   -20.0251 -19.7874 -19.6768 -19.5488 -19.4318 -19.3523 -19.0627 -18.9340
   -18.7983 -18.7837 -18.6229 -18.4737  -7.7663  -7.7481  -7.6650  -7.5982
    -7.5149  -7.4360  -7.3070  -7.2641  -7.1521  -6.8722  -6.8350  -6.7554
    -5.8053  -5.3568  -5.0417  -4.8282  -4.7113  -4.0692  -3.5568  -3.4591
    -3.2712  -2.9527  -2.7051  -2.4402  -1.9940  -1.9868  -1.8915  -1.8251
    -1.7345  -1.6560  -1.6080  -1.5918  -1.5083  -1.4716  -1.3287  -1.2411

          k = 0.1498 0.2595 0.0000 ( 25287 PWs)   bands (ev):

   -20.1929 -19.7142 -19.6286 -19.4167 -19.3631 -19.2484 -19.1488 -19.0472
   -18.9671 -18.7393 -18.6825 -18.3311  -7.8231  -7.7346  -7.6940  -7.5841
    -7.4731  -7.4687  -7.3752  -7.2034  -7.1018  -6.9715  -6.8881  -6.8250
    -6.1974  -5.0343  -4.9514  -4.6796  -4.6009  -3.9013  -3.6942  -3.5700
    -3.5218  -2.8838  -2.8430  -2.0990  -1.9290  -1.9043  -1.8841  -1.8002
    -1.7275  -1.6666  -1.5694  -1.5314  -1.5138  -1.4033  -1.3172  -1.2838

          k = 0.2996-0.1730-1.2442 ( 25290 PWs)   bands (ev):

   -20.0043 -19.9567 -19.6550 -19.4857 -19.3707 -19.2732 -19.0679 -19.0174
   -18.8276 -18.7872 -18.5376 -18.4945  -7.7913  -7.7293  -7.6502  -7.5788
    -7.5347  -7.5005  -7.4072  -7.3135  -7.1381  -6.9702  -6.8468  -6.7703
    -5.6112  -5.5953  -5.0065  -4.9146  -4.4474  -4.0385  -3.4832  -3.4371
    -3.1947  -3.1043  -2.6584  -2.3785  -1.9630  -1.8952  -1.8504  -1.8329
[...]
O                0.5218614157        0.2509583827        0.6701088171
O                0.3298911529        0.4781385843        0.7490416173
O                0.6701088171        0.5218614157        0.2509583827
O                0.7490416173        0.3298911529        0.4781385843
O                0.2509583827        0.6701088171        0.5218614157
H                0.1352971801        0.0407382217        0.7898232173
H                0.8647028059        0.9592617703        0.2101767827
H                0.7898232173        0.1352971801        0.0407382217
H                0.2101767827        0.8647028059        0.9592617703
H                0.0407382217        0.7898232173        0.1352971801
H                0.9592617703        0.2101767827        0.8647028059
H                0.4342077898        0.2061839485        0.9959238949
H                0.5657922102        0.7938160665        0.0040760841
H                0.9959238949        0.4342077898        0.2061839485
H                0.0040760841        0.5657922102        0.7938160665
H                0.2061839485        0.9959238949        0.4342077898
H                0.7938160665        0.0040760841        0.5657922102
H                0.7290925795        0.4166631020        0.4040199297
H                0.2709074205        0.5833368680        0.5959801003
H                0.4040199297        0.7290925795        0.4166631020
H                0.5959801003        0.2709074205        0.5833368680
H                0.4166631020        0.4040199297        0.7290925795
H                0.5833368680        0.5959801003        0.2709074205
H                0.7421019022        0.1924158914        0.3625330149
H                0.2578980978        0.8075840936        0.6374669851
H                0.3625330149        0.7421019022        0.1924158914
H                0.6374669851        0.2578980978        0.8075840936
H                0.1924158914        0.3625330149        0.7421019022
H                0.8075840936        0.6374669851        0.2578980978



     Writing config-only to output data dir ./iceII/iceII.save/ :
     XML data file
     NEW-OLD atomic charge density approx. for the potential

     total cpu time spent up to now is      216.9 secs

     per-process dynamical memory:    26.0 Mb

     Self-consistent Calculation

     iteration #  1     ecut=    90.00 Ry     beta= 0.70
     Davidson diagonalization with overlap
     ethr =  1.00E-06,  avg # of iterations =  2.0

     Threshold (ethr) on eigenvalues was too large:
     Diagonalizing with lowered threshold

     Davidson diagonalization with overlap
     ethr =  1.37E-10,  avg # of iterations =  4.2

     total cpu time spent up to now is      218.7 secs

     total energy              =    -413.94613915 Ry
     estimated scf accuracy    <       0.00000020 Ry

     iteration #  2     ecut=    90.00 Ry     beta= 0.70
     Davidson diagonalization with overlap
     ethr =  2.14E-10,  avg # of iterations =  2.0

     total cpu time spent up to now is      219.4 secs

     total energy              =    -413.94613918 Ry
     estimated scf accuracy    <       0.00000002 Ry

     iteration #  3     ecut=    90.00 Ry     beta= 0.70
     Davidson diagonalization with overlap
     ethr =  1.62E-11,  avg # of iterations =  2.2

     total cpu time spent up to now is      220.2 secs

     total energy              =    -413.94613918 Ry
     estimated scf accuracy    <          3.0E-09 Ry

     iteration #  4     ecut=    90.00 Ry     beta= 0.70
     Davidson diagonalization with overlap
     ethr =  3.09E-12,  avg # of iterations =  2.1

     total cpu time spent up to now is      221.0 secs

     End of self-consistent calculation

          k = 0.0000 0.0000 0.0000 ( 25187 PWs)   bands (ev):

   -20.2628 -19.5687 -19.5687 -19.2769 -19.2769 -19.2200 -19.2053 -19.2053
   -19.2004 -18.7556 -18.7556 -18.2663  -7.7351  -7.6361  -7.6361  -7.5446
    -7.4191  -7.4191  -7.0916  -7.0351  -7.0351  -7.0113  -7.0113  -6.9915
    -6.4331  -5.0130  -5.0130  -4.2454  -4.2454  -4.0510  -4.0510  -3.8597
    -3.6963  -2.8480  -2.8480  -1.9846  -1.9161  -1.9161  -1.8117  -1.7205
    -1.7205  -1.6448  -1.6179  -1.6179  -1.5074  -1.3601  -1.3596  -1.3596

          k =-0.1498-0.0865 0.3111 ( 25267 PWs)   bands (ev):

   -20.1572 -19.6277 -19.5498 -19.4850 -19.4275 -19.3246 -19.1438 -19.0714
   -18.9740 -18.7636 -18.6982 -18.3570  -7.6803  -7.6611  -7.6204  -7.5411
    -7.4091  -7.3693  -7.1758  -7.1312  -7.0588  -6.9800  -6.8852  -6.8565
    -6.1738  -5.2176  -5.0232  -4.6500  -4.3896  -4.0982  -3.8637  -3.6765
    -3.5107  -2.8437  -2.7616  -2.1836  -2.0144  -1.9536  -1.8462  -1.8246
    -1.7735  -1.7005  -1.5800  -1.5470  -1.5094  -1.4528  -1.3844  -1.3683

          k = 0.2996 0.1730-0.6221 ( 25300 PWs)   bands (ev):

   -19.8817 -19.8756 -19.5885 -19.5875 -19.4283 -19.4186 -19.0677 -19.0516
   -18.7931 -18.7527 -18.5848 -18.5670  -7.6757  -7.6401  -7.5774  -7.5208
    -7.4229  -7.3813  -7.1807  -7.1341  -7.0817  -6.9824  -6.7836  -6.7616
    -5.7119  -5.5378  -5.0691  -4.9726  -4.4144  -4.3338  -3.6965  -3.5919
    -3.0372  -3.0068  -2.7349  -2.4679  -2.0698  -2.0022  -1.8957  -1.8820
    -1.7853  -1.6735  -1.6631  -1.5577  -1.5564  -1.4707  -1.3700  -1.3632

          k =-0.1498 0.0865 0.6221 ( 25314 PWs)   bands (ev):

   -19.9433 -19.7323 -19.7061 -19.5254 -19.4996 -19.3985 -19.0761 -18.9493
   -18.8825 -18.6979 -18.6700 -18.5163  -7.6624  -7.6415  -7.6007  -7.5360
    -7.4066  -7.3342  -7.1843  -7.1581  -7.1434  -6.8788  -6.8275  -6.7728
    -5.7239  -5.4087  -5.3199  -4.7443  -4.5385  -4.3331  -3.6924  -3.4395
    -3.2999  -2.8451  -2.7246  -2.5092  -2.0861  -2.0208  -1.8797  -1.8200
    -1.7742  -1.7288  -1.6507  -1.5824  -1.5277  -1.4770  -1.3914  -1.3417

          k = 0.2996 0.3460-0.3111 ( 25315 PWs)   bands (ev):

   -20.0143 -19.7706 -19.6424 -19.5711 -19.4521 -19.3591 -19.0771 -18.9178
   -18.8630 -18.7630 -18.6526 -18.4949  -7.6749  -7.6395  -7.5897  -7.5200
    -7.4376  -7.3930  -7.2895  -7.2129  -7.1471  -6.9023  -6.8585  -6.7812
    -5.8163  -5.3664  -5.0895  -4.7866  -4.7469  -4.0679  -3.6042  -3.4939
    -3.2396  -2.9449  -2.7194  -2.4180  -1.9881  -1.9594  -1.8852  -1.8388
    -1.7674  -1.6688  -1.6512  -1.5911  -1.5197  -1.4967  -1.3693  -1.2898

          k = 0.1498 0.2595 0.0000 ( 25287 PWs)   bands (ev):

   -20.1851 -19.6866 -19.5991 -19.4370 -19.3879 -19.2765 -19.1435 -19.0439
   -18.9679 -18.7679 -18.7216 -18.3437  -7.7048  -7.6447  -7.6276  -7.5272
    -7.4246  -7.4108  -7.2905  -7.1609  -7.1030  -6.9696  -6.9495  -6.8644
    -6.1793  -5.0717  -4.9554  -4.6713  -4.6523  -3.9061  -3.7072  -3.5935
    -3.5302  -2.8865  -2.8553  -2.0731  -1.9155  -1.8941  -1.8802  -1.8082
    -1.7456  -1.6766  -1.6294  -1.5873  -1.5038  -1.4190  -1.3383  -1.3102

          k = 0.2996-0.1730-1.2442 ( 25290 PWs)   bands (ev):

   -20.0014 -19.9319 -19.6218 -19.5107 -19.3820 -19.3132 -19.0386 -19.0331
   -18.8318 -18.8128 -18.5491 -18.5322  -7.6814  -7.6251  -7.5831  -7.5115
    -7.4743  -7.4160  -7.4065  -7.2304  -7.1453  -6.9699  -6.9162  -6.8204
    -5.5869  -5.5838  -4.9906  -4.9586  -4.5195  -4.0621  -3.4984  -3.4244
    -3.2212  -3.0727  -2.6620  -2.3990  -1.9383  -1.8880  -1.8489  -1.8196
    -1.7896  -1.6624  -1.6621  -1.5830  -1.5201  -1.4651  -1.2967  -1.2881

          k = 0.0000 0.0000 0.9332 ( 25346 PWs)   bands (ev):

   -19.8529 -19.8529 -19.7271 -19.6900 -19.3902 -19.3902 -18.9537 -18.9537
   -18.7480 -18.6950 -18.6623 -18.6623  -7.6400  -7.6400  -7.6250  -7.4876
    -7.4601  -7.4601  -7.2848  -7.2165  -7.2165  -6.8013  -6.8013  -6.7635
    -5.5065  -5.5065  -5.3936  -4.9119  -4.4403  -4.4403  -3.2967  -3.2967
    -3.2962  -2.8053  -2.8053  -2.6990  -1.9462  -1.9462  -1.8379  -1.7777
    -1.7435  -1.7435  -1.6287  -1.6035  -1.6035  -1.4505  -1.4505  -1.2560

          k = 0.4494 0.2595 0.0000 ( 25272 PWs)   bands (ev):

   -20.0404 -19.7943 -19.7707 -19.5148 -19.3004 -19.2841 -19.1027 -19.0688
   -18.8143 -18.7172 -18.6695 -18.4817  -7.6616  -7.6333  -7.6092  -7.4923
    -7.4701  -7.4462  -7.3579  -7.2446  -7.1884  -6.9405  -6.8935  -6.8374
    -5.7692  -5.2311  -5.1816  -4.9627  -4.4858  -4.0768  -3.5611  -3.4465
    -3.1571  -2.9288  -2.8224  -2.3551  -1.9164  -1.8950  -1.8580  -1.8430
    -1.7678  -1.6970  -1.6436  -1.6083  -1.4851  -1.4356  -1.3555  -1.2617

          k = 0.2996 0.1730 0.3111 ( 25307 PWs)   bands (ev):

   -20.0835 -19.6933 -19.5779 -19.5631 -19.4527 -19.3438 -19.0957 -19.0107
   -18.9405 -18.7333 -18.6639 -18.4192  -7.6763  -7.6404  -7.6025  -7.5085
    -7.4281  -7.3404  -7.2754  -7.1334  -7.0927  -7.0351  -6.9511  -6.8185
    -5.9391  -5.1801  -5.0676  -4.7322  -4.6621  -4.0544  -3.7198  -3.5106
    -3.4555  -2.8545  -2.7623  -2.2292  -2.0368  -1.9641  -1.9042  -1.8710
    -1.8110  -1.7022  -1.6227  -1.5512  -1.4767  -1.4506  -1.3639  -1.3224

          k = 0.4494-0.2595-0.9332 ( 25297 PWs)   bands (ev):

   -19.8980 -19.8721 -19.6792 -19.5997 -19.4302 -19.3003 -19.1501 -18.9879
   -18.8078 -18.6966 -18.6386 -18.5151  -7.6602  -7.6134  -7.5811  -7.4861
    -7.4250  -7.3765  -7.3079  -7.2059  -7.1289  -7.0569  -6.9286  -6.8449
    -5.5410  -5.3809  -5.1099  -4.9365  -4.5953  -4.0915  -3.7687  -3.4192
    -3.1302  -2.8531  -2.8291  -2.3531  -2.0307  -1.9804  -1.9321  -1.8902
    -1.8684  -1.7321  -1.5969  -1.5632  -1.4822  -1.4452  -1.3509  -1.2783

          k = 0.2996-0.3460-0.6221 ( 25300 PWs)   bands (ev):

   -19.8238 -19.8191 -19.6523 -19.6467 -19.4594 -19.4555 -19.0313 -19.0247
   -18.7765 -18.7632 -18.5933 -18.5491  -7.6720  -7.6044  -7.5489  -7.4905
    -7.4622  -7.3098  -7.2343  -7.2020  -7.0782  -7.0053  -6.8541  -6.8372
    -5.5027  -5.4331  -5.1126  -4.9964  -4.4927  -4.4303  -3.5904  -3.4775
    -3.0927  -3.0676  -2.7095  -2.4340  -2.0954  -2.0019  -1.9604  -1.9404
    -1.8153  -1.7465  -1.6080  -1.5629  -1.5270  -1.4305  -1.4096  -1.2775

          k = 0.0000 0.0000-1.8663 ( 25356 PWs)   bands (ev):

   -19.7442 -19.7398 -19.6335 -19.6335 -19.6103 -19.6103 -18.8818 -18.8818
   -18.8767 -18.8767 -18.5822 -18.5216  -7.6812  -7.5055  -7.5055  -7.4827
    -7.4827  -7.3645  -7.2745  -7.1874  -7.0347  -7.0347  -6.9416  -6.9416
    -5.4837  -5.1950  -4.8854  -4.8854  -4.7576  -4.7576  -3.2809  -3.2809
    -3.2508  -3.2508  -2.6860  -2.4064  -2.0201  -2.0201  -2.0168  -2.0042
    -2.0042  -1.6984  -1.5695  -1.5121  -1.5121  -1.4439  -1.4439  -1.2184

          k = 0.2996-0.3460 0.3111 ( 25315 PWs)   bands (ev):

   -20.0143 -19.7711 -19.6381 -19.5767 -19.4514 -19.3581 -19.0725 -18.9077
   -18.8943 -18.7370 -18.6612 -18.4958  -7.6663  -7.6431  -7.5932  -7.4903
    -7.4537  -7.4158  -7.3086  -7.1880  -7.1441  -6.8971  -6.8526  -6.7963
    -5.8139  -5.3376  -5.1649  -4.7487  -4.6773  -4.1582  -3.7227  -3.3224
    -3.1460  -2.9761  -2.8613  -2.3603  -1.9948  -1.9361  -1.8750  -1.8152
    -1.7992  -1.6998  -1.6537  -1.5964  -1.5307  -1.4593  -1.3741  -1.2929

     highest occupied level (ev):    -1.2184

!    total energy              =    -413.94613918 Ry
     estimated scf accuracy    <          1.4E-10 Ry

     The total energy is the sum of the following terms:
     one-electron contribution =    -262.23314629 Ry
     hartree contribution      =     168.89792193 Ry
     xc contribution           =    -101.90992471 Ry
     ewald contribution        =    -218.70099011 Ry

     convergence has been achieved in   4 iterations

     Forces acting on atoms (cartesian axes, Ry/au):

     atom    1 type  2   force =     0.00001047   -0.00004998    0.00005882
     atom    2 type  2   force =    -0.00001047    0.00004998   -0.00005882
     atom    3 type  2   force =     0.00003805    0.00003406    0.00005882
     atom    4 type  2   force =    -0.00003805   -0.00003406   -0.00005882
     atom    5 type  2   force =    -0.00004852    0.00001593    0.00005882
     atom    6 type  2   force =     0.00004852   -0.00001593   -0.00005882
     atom    7 type  2   force =    -0.00000018   -0.00005329    0.00002110
     atom    8 type  2   force =     0.00000018    0.00005329   -0.00002110
     atom    9 type  2   force =     0.00004624    0.00002649    0.00002110
     atom   10 type  2   force =    -0.00004624   -0.00002649   -0.00002110
     atom   11 type  2   force =    -0.00004606    0.00002680    0.00002110
     atom   12 type  2   force =     0.00004606   -0.00002680   -0.00002110
     atom   13 type  1   force =     0.00004547   -0.00007039   -0.00002985
     atom   14 type  1   force =    -0.00004547    0.00007039    0.00002985
     atom   15 type  1   force =     0.00003823    0.00007457   -0.00002985
     atom   16 type  1   force =    -0.00003823   -0.00007457    0.00002985
     atom   17 type  1   force =    -0.00008370   -0.00000418   -0.00002985
     atom   18 type  1   force =     0.00008370    0.00000418    0.00002985
     atom   19 type  1   force =    -0.00001926    0.00004282    0.00004614
     atom   20 type  1   force =     0.00001926   -0.00004282   -0.00004614
     atom   21 type  1   force =    -0.00002746   -0.00003809    0.00004614
     atom   22 type  1   force =     0.00002746    0.00003809   -0.00004614
     atom   23 type  1   force =     0.00004672   -0.00000473    0.00004614
     atom   24 type  1   force =    -0.00004672    0.00000473   -0.00004614
     atom   25 type  1   force =    -0.00001411    0.00000326   -0.00000224
     atom   26 type  1   force =     0.00001411   -0.00000326    0.00000224
     atom   27 type  1   force =     0.00000423   -0.00001385   -0.00000224
     atom   28 type  1   force =    -0.00000423    0.00001385    0.00000224
     atom   29 type  1   force =     0.00000988    0.00001059   -0.00000224
     atom   30 type  1   force =    -0.00000988   -0.00001059    0.00000224
     atom   31 type  1   force =    -0.00006487    0.00003015   -0.00004713
     atom   32 type  1   force =     0.00006487   -0.00003015    0.00004713
     atom   33 type  1   force =     0.00000633   -0.00007125   -0.00004713
     atom   34 type  1   force =    -0.00000633    0.00007125    0.00004713
     atom   35 type  1   force =     0.00005854    0.00004110   -0.00004713
     atom   36 type  1   force =    -0.00005854   -0.00004110    0.00004713

     Total force =     0.000418     Total SCF correction =     0.000022


     Computing stress (Cartesian axis) and pressure

          total   stress  (Ry/bohr**3)                   (kbar)     P=       24.59
   0.00016366   0.00000000   0.00000000           24.07        0.00        0.00
  -0.00000000   0.00016366   0.00000000           -0.00       24.07        0.00
  -0.00000000   0.00000000   0.00017415           -0.00        0.00       25.62

     Energy error            =      6.1E-07 Ry
     Gradient error          =      8.4E-05 Ry/Bohr

     bfgs converged in  36 scf cycles and  35 bfgs steps
     (criteria: energy <  1.0E-04 Ry, force <  1.0E-04 Ry/Bohr)

     End of BFGS Geometry Optimization

     Final energy             =    -413.9461391836 Ry

     File ./iceII/iceII.bfgs deleted, as requested
Begin final coordinates

ATOMIC_POSITIONS (crystal)
O                0.2696393184        0.0219481704        0.8559052110
O                0.7303606816        0.9780518406        0.1440947590
O                0.8559052110        0.2696393184        0.0219481704
O                0.1440947590        0.7303606816        0.9780518406
O                0.0219481704        0.8559052110        0.2696393184
O                0.9780518406        0.1440947590        0.7303606816
O                0.4781385843        0.7490416173        0.3298911529
O                0.5218614157        0.2509583827        0.6701088171
O                0.3298911529        0.4781385843        0.7490416173
O                0.6701088171        0.5218614157        0.2509583827
O                0.7490416173        0.3298911529        0.4781385843
O                0.2509583827        0.6701088171        0.5218614157
H                0.1352971801        0.0407382217        0.7898232173
H                0.8647028059        0.9592617703        0.2101767827
H                0.7898232173        0.1352971801        0.0407382217
H                0.2101767827        0.8647028059        0.9592617703
H                0.0407382217        0.7898232173        0.1352971801
H                0.9592617703        0.2101767827        0.8647028059
H                0.4342077898        0.2061839485        0.9959238949
H                0.5657922102        0.7938160665        0.0040760841
H                0.9959238949        0.4342077898        0.2061839485
H                0.0040760841        0.5657922102        0.7938160665
H                0.2061839485        0.9959238949        0.4342077898
H                0.7938160665        0.0040760841        0.5657922102
H                0.7290925795        0.4166631020        0.4040199297
H                0.2709074205        0.5833368680        0.5959801003
H                0.4040199297        0.7290925795        0.4166631020
H                0.5959801003        0.2709074205        0.5833368680
H                0.4166631020        0.4040199297        0.7290925795
H                0.5833368680        0.5959801003        0.2709074205
H                0.7421019022        0.1924158914        0.3625330149
H                0.2578980978        0.8075840936        0.6374669851
H                0.3625330149        0.7421019022        0.1924158914
H                0.6374669851        0.2578980978        0.8075840936
H                0.1924158914        0.3625330149        0.7421019022
H                0.8075840936        0.6374669851        0.2578980978
End final coordinates



     Writing all to output data dir ./iceII/iceII.save/ :
     XML data file, charge density, pseudopotentials, collected wavefunctions

     init_run     :      0.87s CPU      0.93s WALL (       1 calls)
     electrons    :    183.84s CPU    187.12s WALL (      36 calls)
     update_pot   :      0.80s CPU      0.84s WALL (      35 calls)
     forces       :      3.74s CPU      3.76s WALL (      36 calls)
     stress       :     26.46s CPU     26.51s WALL (      36 calls)

     Called by init_run:
     wfcinit      :      0.33s CPU      0.33s WALL (       1 calls)
     potinit      :      0.03s CPU      0.05s WALL (       1 calls)
     hinit0       :      0.39s CPU      0.39s WALL (       1 calls)

     Called by electrons:
     c_bands      :    156.34s CPU    157.99s WALL (     224 calls)
     sum_band     :     22.06s CPU     22.22s WALL (     224 calls)
     v_of_rho     :      4.28s CPU      4.31s WALL (     234 calls)
     newd         :      0.69s CPU      0.69s WALL (     234 calls)
     mix_rho      :      0.38s CPU      0.39s WALL (     224 calls)

     Called by c_bands:
     init_us_2    :      2.41s CPU      2.52s WALL (    2084 calls)
     cegterg      :    151.59s CPU    152.70s WALL (     896 calls)

     Called by *egterg:
     cdiaghg      :     11.96s CPU     11.98s WALL (    3017 calls)
     h_psi        :    117.21s CPU    118.22s WALL (    3265 calls)
     s_psi        :      4.46s CPU      4.49s WALL (    3265 calls)
     g_psi        :      0.29s CPU      0.29s WALL (    2365 calls)

     Called by h_psi:
     h_psi:calbec :      7.42s CPU      7.46s WALL (    3265 calls)
     vloc_psi     :    104.43s CPU    105.36s WALL (    3265 calls)
     add_vuspsi   :      4.66s CPU      4.68s WALL (    3265 calls)

     General routines
     calbec       :     10.66s CPU     10.72s WALL (    4881 calls)
     fft          :      2.58s CPU      2.59s WALL (    2923 calls)
     ffts         :      0.19s CPU      0.19s WALL (     224 calls)
     fftw         :    109.14s CPU    110.02s WALL (  306904 calls)

     Parallel routines

     PWSCF        :   3m38.07s CPU   3m42.32s WALL


   This run was terminated on:  17:22: 0  31Mar2026            

=------------------------------------------------------------------------------=
   JOB DONE.
=------------------------------------------------------------------------------=
