
     Program PWSCF v.7.3.1 starts on 21Mar2026 at 18:18:24 

     This program is part of the open-source Quantum ESPRESSO suite
     for quantum simulation of materials; please cite
         "P. Giannozzi et al., J. Phys.:Condens. Matter 21 395502 (2009);
         "P. Giannozzi et al., J. Phys.:Condens. Matter 29 465901 (2017);
         "P. Giannozzi et al., J. Chem. Phys. 152 154105 (2020);
          URL http://www.quantum-espresso.org", 
     in publications or presentations arising from this work. More details at
     http://www.quantum-espresso.org/quote

     Parallel version (MPI), running on   128 processors

     MPI processes distributed on     1 nodes
     243048 MiB available memory on the printing compute node when the environment starts

     Waiting for input...
     Reading input from standard input

     Current dimensions of program PWSCF are:
     Max number of different atomic species (ntypx) = 10
     Max number of k-points (npk) =  40000
     Max angular momentum in pseudopotentials (lmaxx) =  4

     K-points division:     npool     =       4
     R & G space division:  proc/nbgrp/npool/nimage =      32
     Subspace diagonalization in iterative solution of the eigenvalue problem:
     a serial algorithm will be used


     Parallelization info
     --------------------
     sticks:   dense  smooth     PW     G-vecs:    dense   smooth      PW
     Min         162     162     47                 6426     6426    1032
     Max         163     163     48                 6429     6429    1036
     Sum        5189    5189   1531               205661   205661   33091

     Using Slab Decomposition



     bravais-lattice index     =            5
     lattice parameter (alat)  =      14.0258  a.u.
     unit-cell volume          =    1782.6777 (a.u.)^3
     number of atoms/cell      =           36
     number of atomic types    =            2
     number of electrons       =        96.00
     number of Kohn-Sham states=           48
     kinetic-energy cutoff     =      90.0000  Ry
     charge density cutoff     =     360.0000  Ry
     scf convergence threshold =      1.0E-07
     mixing beta               =       0.7000
     number of iterations used =            8  plain     mixing
     Exchange-correlation=  SLA  PW   PBE  PBE
                           (   1   4   3   4   0   0   0)

     celldm(1)=  14.025773  celldm(2)=   0.000000  celldm(3)=   0.000000
     celldm(4)=  -0.392337  celldm(5)=   0.000000  celldm(6)=   0.000000

     crystal axes: (cart. coord. in units of alat)
               a(1) = (   0.834367  -0.481722   0.267909 )  
               a(2) = (   0.000000   0.963444   0.267909 )  
               a(3) = (  -0.834367  -0.481722   0.267909 )  

     reciprocal axes: (cart. coord. in units 2 pi/alat)
               b(1) = (  0.599257 -0.345981  1.244203 )  
               b(2) = (  0.000000  0.691962  1.244203 )  
               b(3) = ( -0.599257 -0.345981  1.244203 )  


     PseudoPot. # 1 for H  read from file:
     ./H.pbe-van_ak.UPF
     MD5 check sum: 077eb6d537518a38cb46c6de387227b7
     Pseudo is Ultrasoft, Zval =  1.0
     Generated by new atomic code, or converted to UPF format
     Using radial grid of  615 points,  1 beta functions with: 
                l(1) =   0
     Q(r) pseudized with  8 coefficients,  rinner =    0.800

     PseudoPot. # 2 for O  read from file:
     ./O.pbe-van_ak.UPF
     MD5 check sum: 78c19812648e8988a0fe644b0f25305e
     Pseudo is Ultrasoft, Zval =  6.0
     Generated by new atomic code, or converted to UPF format
     Using radial grid of  737 points,  4 beta functions with: 
                l(1) =   0
                l(2) =   0
                l(3) =   1
                l(4) =   1
     Q(r) pseudized with  8 coefficients,  rinner =    0.800   0.800   0.800


     atomic species   valence    mass     pseudopotential
     H                 1.00     1.00800     H ( 1.00)
     O                 6.00    16.00000     O ( 1.00)

      6 Sym. Ops., with inversion, found



   Cartesian axes

     site n.     atom                  positions (alat units)
         1        O      tau(   1) = (  -0.4847673  -0.5197781   0.3083633  )
         2        O      tau(   2) = (   0.4847673   0.5197782   0.4953638  )
         3        O      tau(   3) = (   0.6925247  -0.1599317   0.3083633  )
         4        O      tau(   4) = (  -0.6925248   0.1599317   0.4953638  )
         5        O      tau(   5) = (  -0.2077574   0.6797099   0.3083633  )
         6        O      tau(   6) = (   0.2077574  -0.6797099   0.4953638  )
         7        O      tau(   7) = (   0.1218176   0.3323883   0.4179381  )
         8        O      tau(   8) = (  -0.1218176  -0.3323883   0.3857890  )
         9        O      tau(   9) = (  -0.3487655  -0.0606970   0.4179381  )
        10        O      tau(  10) = (   0.3487655   0.0606970   0.3857890  )
        11        O      tau(  11) = (   0.2269479  -0.2716913   0.4179381  )
        12        O      tau(  12) = (  -0.2269479   0.2716912   0.3857890  )
        13        H      tau(  13) = (  -0.5381668  -0.4032014   0.2796970  )
        14        H      tau(  14) = (   0.5381668   0.4032014   0.5240301  )
        15        H      tau(  15) = (   0.6182661  -0.2644654   0.2796970  )
        16        H      tau(  16) = (  -0.6182661   0.2644654   0.5240301  )
        17        H      tau(  17) = (  -0.0800993   0.6676668   0.2796970  )
        18        H      tau(  18) = (   0.0800993  -0.6676668   0.5240301  )
        19        H      tau(  19) = (  -0.4872704  -0.4817221   0.4326731  )
        20        H      tau(  20) = (   0.4872704   0.4817221   0.3710540  )
        21        H      tau(  21) = (   0.6608188  -0.1811275   0.4326731  )
        22        H      tau(  22) = (  -0.6608188   0.1811275   0.3710540  )
        23        H      tau(  23) = (  -0.1735484   0.6628496   0.4326731  )
        24        H      tau(  24) = (   0.1735484  -0.6628496   0.3710540  )
        25        H      tau(  25) = (   0.2703349  -0.1502973   0.4058822  )
        26        H      tau(  26) = (  -0.2703350   0.1502973   0.3978449  )
        27        H      tau(  27) = (  -0.0050062   0.3092656   0.4058822  )
        28        H      tau(  28) = (   0.0050062  -0.3092656   0.3978449  )
        29        H      tau(  29) = (  -0.2653287  -0.1589683   0.4058822  )
        30        H      tau(  30) = (   0.2653287   0.1589683   0.3978449  )
        31        H      tau(  31) = (   0.3178939  -0.3347969   0.3493534  )
        32        H      tau(  32) = (  -0.3178939   0.3347969   0.4543737  )
        33        H      tau(  33) = (   0.1309957   0.4427026   0.3493534  )
        34        H      tau(  34) = (  -0.1309956  -0.4427026   0.4543737  )
        35        H      tau(  35) = (  -0.4488895  -0.1079057   0.3493534  )
        36        H      tau(  36) = (   0.4488895   0.1079057   0.4543737  )

     number of k points=    14
                       cart. coord. in units 2pi/alat
        k(    1) = (   0.0000000   0.0000000   0.0000000), wk =   0.0312500
        k(    2) = (  -0.1498141  -0.0864952   0.3110508), wk =   0.1875000
        k(    3) = (   0.2996283   0.1729905  -0.6221017), wk =   0.0937500
        k(    4) = (  -0.1498141   0.0864952   0.6221017), wk =   0.1875000
        k(    5) = (   0.2996283   0.3459809  -0.3110508), wk =   0.1875000
        k(    6) = (   0.1498141   0.2594857   0.0000000), wk =   0.1875000
        k(    7) = (   0.2996283  -0.1729905  -1.2442034), wk =   0.0937500
        k(    8) = (   0.0000000   0.0000000   0.9331525), wk =   0.0625000
        k(    9) = (   0.4494424   0.2594857   0.0000000), wk =   0.1875000
        k(   10) = (   0.2996283   0.1729905   0.3110508), wk =   0.1875000
        k(   11) = (   0.4494424  -0.2594857  -0.9331525), wk =   0.1875000
        k(   12) = (   0.2996283  -0.3459809  -0.6221017), wk =   0.1875000
        k(   13) = (   0.0000000   0.0000000  -1.8663050), wk =   0.0312500
        k(   14) = (   0.2996283  -0.3459809   0.3110508), wk =   0.1875000

     Dense  grid:   205661 G-vectors     FFT dimensions: (  90,  90,  90)

     Estimated max dynamical RAM per process >      13.86 MB

     Estimated total dynamical RAM >       1.59 GB

     Initial potential from superposition of free atoms

     starting charge      95.9998, renormalised to      96.0000
     Starting wfcs are   72 randomized atomic wfcs

     total cpu time spent up to now is        1.1 secs

     per-process dynamical memory:    18.6 Mb

     Self-consistent Calculation

     iteration #  1     ecut=    90.00 Ry     beta= 0.70
     Davidson diagonalization with overlap
     ethr =  1.00E-02,  avg # of iterations =  2.0

     total cpu time spent up to now is        1.9 secs

     total energy              =    -412.18695563 Ry
     estimated scf accuracy    <       3.97718384 Ry

     iteration #  2     ecut=    90.00 Ry     beta= 0.70
     Davidson diagonalization with overlap
     ethr =  4.14E-03,  avg # of iterations =  3.0

     total cpu time spent up to now is        2.9 secs

     total energy              =    -413.46542246 Ry
     estimated scf accuracy    <       1.95947928 Ry

     iteration #  3     ecut=    90.00 Ry     beta= 0.70
     Davidson diagonalization with overlap
     ethr =  2.04E-03,  avg # of iterations =  2.0

     total cpu time spent up to now is        3.6 secs

     total energy              =    -413.70986044 Ry
     estimated scf accuracy    <       0.07973379 Ry

     iteration #  4     ecut=    90.00 Ry     beta= 0.70
     Davidson diagonalization with overlap
     ethr =  8.31E-05,  avg # of iterations =  4.5

     total cpu time spent up to now is        4.7 secs

     total energy              =    -413.76670677 Ry
     estimated scf accuracy    <       0.10260413 Ry

     iteration #  5     ecut=    90.00 Ry     beta= 0.70
     Davidson diagonalization with overlap
     ethr =  8.31E-05,  avg # of iterations =  2.0

     total cpu time spent up to now is        5.3 secs

     total energy              =    -413.77133643 Ry
     estimated scf accuracy    <       0.01615990 Ry

     iteration #  6     ecut=    90.00 Ry     beta= 0.70
     Davidson diagonalization with overlap
     ethr =  1.68E-05,  avg # of iterations =  2.0

     total cpu time spent up to now is        6.1 secs

     total energy              =    -413.77217639 Ry
     estimated scf accuracy    <       0.00347060 Ry

     iteration #  7     ecut=    90.00 Ry     beta= 0.70
     Davidson diagonalization with overlap
     ethr =  3.62E-06,  avg # of iterations =  2.6

     total cpu time spent up to now is        6.9 secs

     total energy              =    -413.77309895 Ry
     estimated scf accuracy    <       0.00004117 Ry

     iteration #  8     ecut=    90.00 Ry     beta= 0.70
     Davidson diagonalization with overlap
     ethr =  4.29E-08,  avg # of iterations =  5.3

     total cpu time spent up to now is        8.1 secs

     total energy              =    -413.77317449 Ry
     estimated scf accuracy    <       0.00009195 Ry

     iteration #  9     ecut=    90.00 Ry     beta= 0.70
     Davidson diagonalization with overlap
     ethr =  4.29E-08,  avg # of iterations =  2.0

     total cpu time spent up to now is        8.8 secs

     total energy              =    -413.77316346 Ry
     estimated scf accuracy    <       0.00003465 Ry

     iteration # 10     ecut=    90.00 Ry     beta= 0.70
     Davidson diagonalization with overlap
     ethr =  3.61E-08,  avg # of iterations =  2.0

     total cpu time spent up to now is        9.5 secs

     total energy              =    -413.77316832 Ry
     estimated scf accuracy    <       0.00000226 Ry

     iteration # 11     ecut=    90.00 Ry     beta= 0.70
     Davidson diagonalization with overlap
     ethr =  2.35E-09,  avg # of iterations =  3.0

     total cpu time spent up to now is       10.3 secs

     total energy              =    -413.77316873 Ry
     estimated scf accuracy    <       0.00000027 Ry

     iteration # 12     ecut=    90.00 Ry     beta= 0.70
     Davidson diagonalization with overlap
     ethr =  2.79E-10,  avg # of iterations =  3.2

     total cpu time spent up to now is       11.2 secs

     End of self-consistent calculation

          k = 0.0000 0.0000 0.0000 ( 25739 PWs)   bands (ev):

   -20.8603 -20.2531 -20.2531 -19.9659 -19.9659 -19.9403 -19.9403 -19.9109
   -19.9046 -19.5122 -19.5122 -19.1065  -8.0263  -7.7940  -7.7442  -7.7442
    -7.6020  -7.6020  -7.1823  -7.0029  -7.0029  -6.7733  -6.7733  -6.6036
    -6.5430  -5.4553  -5.4553  -4.7634  -4.7634  -4.6959  -4.6959  -4.3502
    -4.1138  -3.4160  -3.4160  -2.7095  -2.1777  -2.1777  -2.0519  -1.9703
    -1.9062  -1.9062  -1.7526  -1.7526  -1.6991  -1.6780  -1.6189  -1.6189

          k =-0.1498-0.0865 0.3111 ( 25713 PWs)   bands (ev):

   -20.7641 -20.3048 -20.2374 -20.1538 -20.1284 -20.0305 -19.8418 -19.7881
   -19.7149 -19.5223 -19.4673 -19.1845  -7.9602  -7.8702  -7.7839  -7.7228
    -7.5876  -7.5197  -7.1919  -6.9826  -6.9531  -6.8116  -6.6472  -6.6114
    -6.3578  -5.6252  -5.4643  -5.1627  -4.7979  -4.6197  -4.4792  -4.2136
    -4.1536  -3.4047  -3.3377  -2.8489  -2.3307  -2.2409  -2.0874  -2.0226
    -1.9522  -1.9007  -1.8546  -1.7871  -1.6995  -1.6611  -1.6078  -1.5519

          k = 0.2996 0.1730-0.6221 ( 25710 PWs)   bands (ev):

   -20.5185 -20.5048 -20.2889 -20.2524 -20.1296 -20.1168 -19.7750 -19.7529
   -19.5382 -19.5244 -19.3928 -19.3560  -7.9247  -7.8619  -7.7720  -7.7359
    -7.6010  -7.5258  -7.1326  -6.9851  -6.9307  -6.8227  -6.5419  -6.5403
    -6.0538  -5.8960  -5.5203  -5.3603  -4.7914  -4.7021  -4.4613  -4.2895
    -3.6739  -3.5799  -3.2691  -3.0301  -2.4688  -2.2724  -2.1196  -2.0928
    -2.0014  -1.9667  -1.8629  -1.7860  -1.7756  -1.6146  -1.5946  -1.4986

          k =-0.1498 0.0865 0.6221 ( 25704 PWs)   bands (ev):

   -20.5673 -20.3886 -20.3699 -20.2127 -20.1869 -20.1037 -19.7783 -19.6720
   -19.6244 -19.4719 -19.4490 -19.3256  -7.9349  -7.8370  -7.8159  -7.6956
    -7.6165  -7.5043  -7.1343  -7.0392  -6.9706  -6.6862  -6.6036  -6.5368
    -6.0609  -5.8154  -5.6957  -5.1561  -4.9507  -4.7459  -4.3788  -4.1478
    -3.9268  -3.3753  -3.3287  -3.0557  -2.4388  -2.3276  -2.1095  -2.0443
    -2.0069  -1.9514  -1.8936  -1.7958  -1.7578  -1.6242  -1.6025  -1.4904

          k = 0.2996 0.3460-0.3111 ( 25676 PWs)   bands (ev):

   -20.6383 -20.4326 -20.2799 -20.2656 -20.1400 -20.0614 -19.7774 -19.6528
   -19.6361 -19.5168 -19.4414 -19.2942  -7.9483  -7.9141  -7.7411  -7.7149
    -7.6394  -7.5273  -7.1876  -7.1122  -6.9617  -6.6487  -6.6140  -6.5204
    -6.2116  -5.8450  -5.5707  -5.1896  -5.1313  -4.5362  -4.3433  -4.0486
    -3.7905  -3.5470  -3.3210  -3.0177  -2.3160  -2.2359  -2.1293  -2.0468
    -1.9770  -1.9106  -1.8460  -1.8249  -1.7200  -1.6789  -1.6025  -1.4716

          k = 0.1498 0.2595 0.0000 ( 25693 PWs)   bands (ev):

   -20.7914 -20.3580 -20.2825 -20.1067 -20.0725 -19.9673 -19.8698 -19.7741
   -19.7248 -19.5286 -19.4795 -19.1687  -8.0058  -7.8885  -7.7722  -7.7096
    -7.5681  -7.5576  -7.2766  -7.0957  -6.8739  -6.7750  -6.6799  -6.5388
    -6.5274  -5.5922  -5.4356  -5.1604  -5.0406  -4.4832  -4.3215  -4.2028
    -3.9794  -3.4931  -3.4010  -2.7926  -2.1820  -2.1515  -2.1019  -2.0088
    -1.9597  -1.9250  -1.7794  -1.7574  -1.7176  -1.7014  -1.5740  -1.5545

          k = 0.2996-0.1730-1.2442 ( 25678 PWs)   bands (ev):

   -20.6269 -20.5727 -20.3065 -20.1663 -20.0760 -19.9895 -19.8017 -19.7449
   -19.6080 -19.5722 -19.3406 -19.3173  -7.9837  -7.9338  -7.7715  -7.7335
    -7.5497  -7.5313  -7.2870  -7.1926  -6.8656  -6.8006  -6.5823  -6.5230
    -6.1060  -6.0679  -5.5220  -5.2917  -4.9366  -4.6111  -4.1661  -3.9041
    -3.7784  -3.7487  -3.2325  -3.0209  -2.2074  -2.1381  -2.1062  -2.0548
    -1.9667  -1.8753  -1.8667  -1.7689  -1.7623  -1.6954  -1.5281  -1.5158

          k = 0.0000 0.0000 0.9332 ( 25733 PWs)   bands (ev):

   -20.4987 -20.4987 -20.3963 -20.3234 -20.0896 -20.0896 -19.6810 -19.6810
   -19.5353 -19.4618 -19.4406 -19.4406  -7.9159  -7.9159  -7.7522  -7.6524
    -7.6365  -7.6365  -7.1971  -7.0758  -7.0758  -6.5348  -6.5348  -6.4863
    -5.9712  -5.9712  -5.9616  -5.2126  -4.8438  -4.8438  -4.0984  -3.8995
    -3.8995  -3.3947  -3.3947  -3.2312  -2.2449  -2.2449  -2.1014  -2.0100
    -1.9456  -1.9456  -1.8647  -1.8000  -1.8000  -1.6609  -1.6609  -1.4420

          k = 0.4494 0.2595 0.0000 ( 25669 PWs)   bands (ev):

   -20.6634 -20.4476 -20.4344 -20.1666 -20.0054 -19.9799 -19.8189 -19.8026
   -19.6088 -19.4806 -19.4340 -19.2802  -7.9733  -7.9248  -7.8381  -7.6590
    -7.5893  -7.5220  -7.3032  -7.1313  -6.9811  -6.6741  -6.6040  -6.5542
    -6.2384  -5.7972  -5.7080  -5.2407  -4.9342  -4.6129  -4.1017  -4.0623
    -3.8257  -3.5096  -3.3647  -2.9930  -2.1815  -2.1722  -2.0897  -2.0599
    -1.9795  -1.9041  -1.8239  -1.7947  -1.7248  -1.6670  -1.5935  -1.4922

          k = 0.2996 0.1730 0.3111 ( 25684 PWs)   bands (ev):

   -20.6992 -20.3675 -20.2536 -20.2339 -20.1259 -20.0495 -19.7970 -19.7661
   -19.6639 -19.5114 -19.4348 -19.2334  -7.9700  -7.9040  -7.8091  -7.6597
    -7.6364  -7.4566  -7.2311  -7.0678  -6.8586  -6.7716  -6.7094  -6.5852
    -6.2434  -5.6188  -5.4190  -5.3275  -5.0886  -4.6541  -4.3160  -4.0829
    -3.9334  -3.4659  -3.3393  -2.8849  -2.3391  -2.2582  -2.1563  -2.1002
    -1.9738  -1.9250  -1.8293  -1.7854  -1.6807  -1.6360  -1.5621  -1.5467

          k = 0.4494-0.2595-0.9332 ( 25723 PWs)   bands (ev):

   -20.5335 -20.5211 -20.3482 -20.2576 -20.1088 -20.0139 -19.8472 -19.7411
   -19.5513 -19.4877 -19.4175 -19.3071  -8.0018  -7.8859  -7.8399  -7.6596
    -7.6046  -7.4384  -7.2914  -7.0315  -6.8835  -6.8177  -6.6341  -6.5905
    -5.9218  -5.8816  -5.5042  -5.3505  -5.1346  -4.7580  -4.2619  -3.9496
    -3.6339  -3.5543  -3.3770  -2.9695  -2.3277  -2.2828  -2.2378  -2.1027
    -2.0588  -1.9466  -1.7658  -1.7378  -1.6939  -1.6502  -1.5650  -1.5027

          k = 0.2996-0.3460-0.6221 ( 25720 PWs)   bands (ev):

   -20.4740 -20.4530 -20.3299 -20.3060 -20.1542 -20.1486 -19.7503 -19.7356
   -19.5397 -19.5256 -19.3873 -19.3447  -8.0155  -7.7876  -7.7548  -7.7269
    -7.6833  -7.4387  -7.1667  -7.0469  -6.8469  -6.7981  -6.6018  -6.5957
    -5.8815  -5.7427  -5.5479  -5.4170  -5.0416  -4.9977  -4.1690  -4.0895
    -3.6393  -3.5970  -3.3619  -2.9508  -2.5031  -2.3049  -2.2320  -2.1498
    -2.0756  -1.9067  -1.8231  -1.7735  -1.7401  -1.5976  -1.5752  -1.4792

          k = 0.0000 0.0000-1.8663 ( 25758 PWs)   bands (ev):

   -20.4264 -20.3780 -20.2926 -20.2926 -20.2798 -20.2798 -19.6568 -19.6568
   -19.5948 -19.5948 -19.3669 -19.3280  -8.0728  -7.7345  -7.7345  -7.7215
    -7.7215  -7.4114  -7.2217  -7.0510  -6.7327  -6.7327  -6.7003  -6.7003
    -5.6623  -5.5021  -5.4266  -5.4266  -5.3857  -5.3857  -3.9097  -3.9097
    -3.6915  -3.6915  -3.3627  -2.8943  -2.5387  -2.3124  -2.3124  -2.2019
    -2.2019  -1.8372  -1.8219  -1.6887  -1.6887  -1.6140  -1.6140  -1.4475

          k = 0.2996-0.3460 0.3111 ( 25676 PWs)   bands (ev):

   -20.6386 -20.4286 -20.3017 -20.2496 -20.1357 -20.0614 -19.7811 -19.6739
   -19.5997 -19.5404 -19.4286 -19.2973  -7.9647  -7.8780  -7.7817  -7.7000
    -7.6193  -7.5319  -7.2472  -7.0726  -6.9357  -6.6946  -6.5704  -6.5450
    -6.1977  -5.7674  -5.6860  -5.2307  -4.9830  -4.6116  -4.4304  -3.9399
    -3.7567  -3.5376  -3.4148  -2.9847  -2.3280  -2.1978  -2.1461  -2.0446
    -1.9900  -1.9143  -1.8511  -1.8214  -1.7409  -1.6414  -1.6025  -1.4821

     highest occupied level (ev):    -1.4420

!    total energy              =    -413.77316884 Ry
     estimated scf accuracy    <       0.00000002 Ry

     The total energy is the sum of the following terms:
     one-electron contribution =    -273.69983334 Ry
     hartree contribution      =     173.75736903 Ry
     xc contribution           =    -102.56802930 Ry
     ewald contribution        =    -211.26267523 Ry

     convergence has been achieved in  12 iterations

     Forces acting on atoms (cartesian axes, Ry/au):

     atom    1 type  2   force =    -0.00433059   -0.01784687   -0.02503714
     atom    2 type  2   force =     0.00433059    0.01784687    0.02503714
     atom    3 type  2   force =     0.01762114    0.00517303   -0.02503714
     atom    4 type  2   force =    -0.01762114   -0.00517303    0.02503714
     atom    5 type  2   force =    -0.01329055    0.01267383   -0.02503714
     atom    6 type  2   force =     0.01329055   -0.01267383    0.02503714
     atom    7 type  2   force =     0.03581387   -0.02070179    0.02023876
     atom    8 type  2   force =    -0.03581387    0.02070179   -0.02023876
     atom    9 type  2   force =     0.00002134    0.04136661    0.02023876
     atom   10 type  2   force =    -0.00002134   -0.04136661   -0.02023876
     atom   11 type  2   force =    -0.03583521   -0.02066483    0.02023876
     atom   12 type  2   force =     0.03583521    0.02066483   -0.02023876
     atom   13 type  1   force =    -0.02755012    0.03914279   -0.07736891
     atom   14 type  1   force =     0.02755012   -0.03914279    0.07736891
     atom   15 type  1   force =    -0.02012359   -0.04343050   -0.07736891
     atom   16 type  1   force =     0.02012359    0.04343050    0.07736891
     atom   17 type  1   force =     0.04767371    0.00428771   -0.07736891
     atom   18 type  1   force =    -0.04767371   -0.00428771    0.07736891
     atom   19 type  1   force =     0.03297786   -0.02933763    0.08973123
     atom   20 type  1   force =    -0.03297786    0.02933763   -0.08973123
     atom   21 type  1   force =     0.00891821    0.04322849    0.08973123
     atom   22 type  1   force =    -0.00891821   -0.04322849   -0.08973123
     atom   23 type  1   force =    -0.04189607   -0.01389085    0.08973123
     atom   24 type  1   force =     0.04189607    0.01389085   -0.08973123
     atom   25 type  1   force =     0.00904458    0.07547841    0.00837365
     atom   26 type  1   force =    -0.00904458   -0.07547841   -0.00837365
     atom   27 type  1   force =    -0.06988851   -0.02990637    0.00837365
     atom   28 type  1   force =     0.06988851    0.02990637   -0.00837365
     atom   29 type  1   force =     0.06084393   -0.04557204    0.00837365
     atom   30 type  1   force =    -0.06084393    0.04557204   -0.00837365
     atom   31 type  1   force =     0.02344280   -0.05356009   -0.02440629
     atom   32 type  1   force =    -0.02344280    0.05356009    0.02440629
     atom   33 type  1   force =     0.03466300    0.04708210   -0.02440629
     atom   34 type  1   force =    -0.03466300   -0.04708210    0.02440629
     atom   35 type  1   force =    -0.05810580    0.00647799   -0.02440629
     atom   36 type  1   force =     0.05810580   -0.00647799    0.02440629

     Total force =     0.432838     Total SCF correction =     0.000105


     Computing stress (Cartesian axis) and pressure

          total   stress  (Ry/bohr**3)                   (kbar)     P=      113.91
   0.00070773   0.00000000  -0.00000000          104.11        0.00       -0.00
  -0.00000000   0.00070773   0.00000000           -0.00      104.11        0.00
  -0.00000000   0.00000000   0.00090761           -0.00        0.00      133.51


     Writing all to output data dir ./iceII/iceII.save/ :
     XML data file, charge density, pseudopotentials, collected wavefunctions

     init_run     :      0.86s CPU      0.92s WALL (       1 calls)
     electrons    :      9.94s CPU     10.13s WALL (       1 calls)
     forces       :      0.12s CPU      0.12s WALL (       1 calls)
     stress       :      0.75s CPU      0.76s WALL (       1 calls)

     Called by init_run:
     wfcinit      :      0.33s CPU      0.33s WALL (       1 calls)
     potinit      :      0.02s CPU      0.04s WALL (       1 calls)
     hinit0       :      0.38s CPU      0.39s WALL (       1 calls)

     Called by electrons:
     c_bands      :      8.44s CPU      8.54s WALL (      12 calls)
     sum_band     :      1.17s CPU      1.19s WALL (      12 calls)
     v_of_rho     :      0.24s CPU      0.25s WALL (      13 calls)
     newd         :      0.05s CPU      0.05s WALL (      13 calls)
     mix_rho      :      0.03s CPU      0.03s WALL (      12 calls)

     Called by c_bands:
     init_us_2    :      0.12s CPU      0.13s WALL (     108 calls)
     cegterg      :      8.11s CPU      8.19s WALL (      48 calls)

     Called by *egterg:
     cdiaghg      :      0.69s CPU      0.70s WALL (     182 calls)
     h_psi        :      6.45s CPU      6.50s WALL (     186 calls)
     s_psi        :      0.24s CPU      0.24s WALL (     186 calls)
     g_psi        :      0.01s CPU      0.01s WALL (     134 calls)

     Called by h_psi:
     h_psi:calbec :      0.43s CPU      0.43s WALL (     186 calls)
     vloc_psi     :      5.71s CPU      5.77s WALL (     186 calls)
     add_vuspsi   :      0.26s CPU      0.26s WALL (     186 calls)

     General routines
     calbec       :      0.58s CPU      0.58s WALL (     254 calls)
     fft          :      0.49s CPU      0.49s WALL (     151 calls)
     ffts         :      0.01s CPU      0.01s WALL (      12 calls)
     fftw         :      5.94s CPU      5.99s WALL (   16888 calls)

     Parallel routines

     PWSCF        :     11.98s CPU     12.55s WALL


   This run was terminated on:  18:18:36  21Mar2026            

=------------------------------------------------------------------------------=
   JOB DONE.
=------------------------------------------------------------------------------=
