
     Program PWSCF v.7.3.1 starts on 21Mar2026 at 18:22:29 

     This program is part of the open-source Quantum ESPRESSO suite
     for quantum simulation of materials; please cite
         "P. Giannozzi et al., J. Phys.:Condens. Matter 21 395502 (2009);
         "P. Giannozzi et al., J. Phys.:Condens. Matter 29 465901 (2017);
         "P. Giannozzi et al., J. Chem. Phys. 152 154105 (2020);
          URL http://www.quantum-espresso.org", 
     in publications or presentations arising from this work. More details at
     http://www.quantum-espresso.org/quote

     Parallel version (MPI), running on   128 processors

     MPI processes distributed on     1 nodes
     242988 MiB available memory on the printing compute node when the environment starts

     Waiting for input...
     Reading input from standard input

     Current dimensions of program PWSCF are:
     Max number of different atomic species (ntypx) = 10
     Max number of k-points (npk) =  40000
     Max angular momentum in pseudopotentials (lmaxx) =  4

     K-points division:     npool     =       4
     R & G space division:  proc/nbgrp/npool/nimage =      32
     Subspace diagonalization in iterative solution of the eigenvalue problem:
     a serial algorithm will be used


     Parallelization info
     --------------------
     sticks:   dense  smooth     PW     G-vecs:    dense   smooth      PW
     Min         163     163     48                 6507     6507    1047
     Max         164     164     49                 6511     6511    1049
     Sum        5217    5217   1551               208235   208235   33553

     Using Slab Decomposition



     bravais-lattice index     =            5
     lattice parameter (alat)  =      14.0846  a.u.
     unit-cell volume          =    1805.1954 (a.u.)^3
     number of atoms/cell      =           36
     number of atomic types    =            2
     number of electrons       =        96.00
     number of Kohn-Sham states=           48
     kinetic-energy cutoff     =      90.0000  Ry
     charge density cutoff     =     360.0000  Ry
     scf convergence threshold =      1.0E-07
     mixing beta               =       0.7000
     number of iterations used =            8  plain     mixing
     Exchange-correlation=  SLA  PW   PBE  PBE
                           (   1   4   3   4   0   0   0)

     celldm(1)=  14.084581  celldm(2)=   0.000000  celldm(3)=   0.000000
     celldm(4)=  -0.392337  celldm(5)=   0.000000  celldm(6)=   0.000000

     crystal axes: (cart. coord. in units of alat)
               a(1) = (   0.834367  -0.481722   0.267909 )  
               a(2) = (   0.000000   0.963444   0.267909 )  
               a(3) = (  -0.834367  -0.481722   0.267909 )  

     reciprocal axes: (cart. coord. in units 2 pi/alat)
               b(1) = (  0.599257 -0.345981  1.244203 )  
               b(2) = (  0.000000  0.691962  1.244203 )  
               b(3) = ( -0.599257 -0.345981  1.244203 )  


     PseudoPot. # 1 for H  read from file:
     ./H.pbe-van_ak.UPF
     MD5 check sum: 077eb6d537518a38cb46c6de387227b7
     Pseudo is Ultrasoft, Zval =  1.0
     Generated by new atomic code, or converted to UPF format
     Using radial grid of  615 points,  1 beta functions with: 
                l(1) =   0
     Q(r) pseudized with  8 coefficients,  rinner =    0.800

     PseudoPot. # 2 for O  read from file:
     ./O.pbe-van_ak.UPF
     MD5 check sum: 78c19812648e8988a0fe644b0f25305e
     Pseudo is Ultrasoft, Zval =  6.0
     Generated by new atomic code, or converted to UPF format
     Using radial grid of  737 points,  4 beta functions with: 
                l(1) =   0
                l(2) =   0
                l(3) =   1
                l(4) =   1
     Q(r) pseudized with  8 coefficients,  rinner =    0.800   0.800   0.800


     atomic species   valence    mass     pseudopotential
     H                 1.00     1.00800     H ( 1.00)
     O                 6.00    16.00000     O ( 1.00)

      6 Sym. Ops., with inversion, found



   Cartesian axes

     site n.     atom                  positions (alat units)
         1        O      tau(   1) = (  -0.4847673  -0.5197781   0.3083633  )
         2        O      tau(   2) = (   0.4847673   0.5197782   0.4953638  )
         3        O      tau(   3) = (   0.6925247  -0.1599317   0.3083633  )
         4        O      tau(   4) = (  -0.6925248   0.1599317   0.4953638  )
         5        O      tau(   5) = (  -0.2077574   0.6797099   0.3083633  )
         6        O      tau(   6) = (   0.2077574  -0.6797099   0.4953638  )
         7        O      tau(   7) = (   0.1218176   0.3323883   0.4179381  )
         8        O      tau(   8) = (  -0.1218176  -0.3323883   0.3857890  )
         9        O      tau(   9) = (  -0.3487655  -0.0606970   0.4179381  )
        10        O      tau(  10) = (   0.3487655   0.0606970   0.3857890  )
        11        O      tau(  11) = (   0.2269479  -0.2716913   0.4179381  )
        12        O      tau(  12) = (  -0.2269479   0.2716912   0.3857890  )
        13        H      tau(  13) = (  -0.5381668  -0.4032014   0.2796970  )
        14        H      tau(  14) = (   0.5381668   0.4032014   0.5240301  )
        15        H      tau(  15) = (   0.6182661  -0.2644654   0.2796970  )
        16        H      tau(  16) = (  -0.6182661   0.2644654   0.5240301  )
        17        H      tau(  17) = (  -0.0800993   0.6676668   0.2796970  )
        18        H      tau(  18) = (   0.0800993  -0.6676668   0.5240301  )
        19        H      tau(  19) = (  -0.4872704  -0.4817221   0.4326731  )
        20        H      tau(  20) = (   0.4872704   0.4817221   0.3710540  )
        21        H      tau(  21) = (   0.6608188  -0.1811275   0.4326731  )
        22        H      tau(  22) = (  -0.6608188   0.1811275   0.3710540  )
        23        H      tau(  23) = (  -0.1735484   0.6628496   0.4326731  )
        24        H      tau(  24) = (   0.1735484  -0.6628496   0.3710540  )
        25        H      tau(  25) = (   0.2703349  -0.1502973   0.4058822  )
        26        H      tau(  26) = (  -0.2703350   0.1502973   0.3978449  )
        27        H      tau(  27) = (  -0.0050062   0.3092656   0.4058822  )
        28        H      tau(  28) = (   0.0050062  -0.3092656   0.3978449  )
        29        H      tau(  29) = (  -0.2653287  -0.1589683   0.4058822  )
        30        H      tau(  30) = (   0.2653287   0.1589683   0.3978449  )
        31        H      tau(  31) = (   0.3178939  -0.3347969   0.3493534  )
        32        H      tau(  32) = (  -0.3178939   0.3347969   0.4543737  )
        33        H      tau(  33) = (   0.1309957   0.4427026   0.3493534  )
        34        H      tau(  34) = (  -0.1309956  -0.4427026   0.4543737  )
        35        H      tau(  35) = (  -0.4488895  -0.1079057   0.3493534  )
        36        H      tau(  36) = (   0.4488895   0.1079057   0.4543737  )

     number of k points=    14
                       cart. coord. in units 2pi/alat
        k(    1) = (   0.0000000   0.0000000   0.0000000), wk =   0.0312500
        k(    2) = (  -0.1498141  -0.0864952   0.3110508), wk =   0.1875000
        k(    3) = (   0.2996283   0.1729905  -0.6221017), wk =   0.0937500
        k(    4) = (  -0.1498141   0.0864952   0.6221017), wk =   0.1875000
        k(    5) = (   0.2996283   0.3459809  -0.3110508), wk =   0.1875000
        k(    6) = (   0.1498141   0.2594857   0.0000000), wk =   0.1875000
        k(    7) = (   0.2996283  -0.1729905  -1.2442034), wk =   0.0937500
        k(    8) = (   0.0000000   0.0000000   0.9331525), wk =   0.0625000
        k(    9) = (   0.4494424   0.2594857   0.0000000), wk =   0.1875000
        k(   10) = (   0.2996283   0.1729905   0.3110508), wk =   0.1875000
        k(   11) = (   0.4494424  -0.2594857  -0.9331525), wk =   0.1875000
        k(   12) = (   0.2996283  -0.3459809  -0.6221017), wk =   0.1875000
        k(   13) = (   0.0000000   0.0000000  -1.8663050), wk =   0.0312500
        k(   14) = (   0.2996283  -0.3459809   0.3110508), wk =   0.1875000

     Dense  grid:   208235 G-vectors     FFT dimensions: (  90,  90,  90)

     Estimated max dynamical RAM per process >      13.99 MB

     Estimated total dynamical RAM >       1.60 GB

     Initial potential from superposition of free atoms

     starting charge      95.9998, renormalised to      96.0000
     Starting wfcs are   72 randomized atomic wfcs

     total cpu time spent up to now is        1.1 secs

     per-process dynamical memory:    18.6 Mb

     Self-consistent Calculation

     iteration #  1     ecut=    90.00 Ry     beta= 0.70
     Davidson diagonalization with overlap
     ethr =  1.00E-02,  avg # of iterations =  2.0

     total cpu time spent up to now is        1.9 secs

     total energy              =    -412.20693598 Ry
     estimated scf accuracy    <       3.95182772 Ry

     iteration #  2     ecut=    90.00 Ry     beta= 0.70
     Davidson diagonalization with overlap
     ethr =  4.12E-03,  avg # of iterations =  3.0

     total cpu time spent up to now is        2.9 secs

     total energy              =    -413.47695269 Ry
     estimated scf accuracy    <       1.98872128 Ry

     iteration #  3     ecut=    90.00 Ry     beta= 0.70
     Davidson diagonalization with overlap
     ethr =  2.07E-03,  avg # of iterations =  2.0

     total cpu time spent up to now is        3.6 secs

     total energy              =    -413.72524223 Ry
     estimated scf accuracy    <       0.08131932 Ry

     iteration #  4     ecut=    90.00 Ry     beta= 0.70
     Davidson diagonalization with overlap
     ethr =  8.47E-05,  avg # of iterations =  4.4

     total cpu time spent up to now is        4.7 secs

     total energy              =    -413.78543992 Ry
     estimated scf accuracy    <       0.09834671 Ry

     iteration #  5     ecut=    90.00 Ry     beta= 0.70
     Davidson diagonalization with overlap
     ethr =  8.47E-05,  avg # of iterations =  2.0

     total cpu time spent up to now is        5.4 secs

     total energy              =    -413.78887151 Ry
     estimated scf accuracy    <       0.01640872 Ry

     iteration #  6     ecut=    90.00 Ry     beta= 0.70
     Davidson diagonalization with overlap
     ethr =  1.71E-05,  avg # of iterations =  2.0

     negative rho (up, down):  2.848E-08 0.000E+00

     total cpu time spent up to now is        6.1 secs

     total energy              =    -413.78910042 Ry
     estimated scf accuracy    <       0.00428246 Ry

     iteration #  7     ecut=    90.00 Ry     beta= 0.70
     Davidson diagonalization with overlap
     ethr =  4.46E-06,  avg # of iterations =  2.4

     negative rho (up, down):  3.311E-08 0.000E+00

     total cpu time spent up to now is        6.9 secs

     total energy              =    -413.79001465 Ry
     estimated scf accuracy    <       0.00009993 Ry

     iteration #  8     ecut=    90.00 Ry     beta= 0.70
     Davidson diagonalization with overlap
     ethr =  1.04E-07,  avg # of iterations =  5.1

     negative rho (up, down):  3.089E-08 0.000E+00

     total cpu time spent up to now is        8.1 secs

     total energy              =    -413.79011312 Ry
     estimated scf accuracy    <       0.00021961 Ry

     iteration #  9     ecut=    90.00 Ry     beta= 0.70
     Davidson diagonalization with overlap
     ethr =  1.04E-07,  avg # of iterations =  2.0

     negative rho (up, down):  2.539E-08 0.000E+00

     total cpu time spent up to now is        8.8 secs

     total energy              =    -413.79010616 Ry
     estimated scf accuracy    <       0.00004965 Ry

     iteration # 10     ecut=    90.00 Ry     beta= 0.70
     Davidson diagonalization with overlap
     ethr =  5.17E-08,  avg # of iterations =  2.7

     negative rho (up, down):  2.504E-08 0.000E+00

     total cpu time spent up to now is        9.6 secs

     total energy              =    -413.79011592 Ry
     estimated scf accuracy    <       0.00000206 Ry

     iteration # 11     ecut=    90.00 Ry     beta= 0.70
     Davidson diagonalization with overlap
     ethr =  2.15E-09,  avg # of iterations =  3.1

     negative rho (up, down):  2.505E-08 0.000E+00

     total cpu time spent up to now is       10.5 secs

     total energy              =    -413.79011672 Ry
     estimated scf accuracy    <       0.00000019 Ry

     iteration # 12     ecut=    90.00 Ry     beta= 0.70
     Davidson diagonalization with overlap
     ethr =  1.99E-10,  avg # of iterations =  2.9

     negative rho (up, down):  2.480E-08 0.000E+00

     total cpu time spent up to now is       11.3 secs

     total energy              =    -413.79011671 Ry
     estimated scf accuracy    <       0.00000011 Ry

     iteration # 13     ecut=    90.00 Ry     beta= 0.70
     Davidson diagonalization with overlap
     ethr =  1.13E-10,  avg # of iterations =  2.9

     negative rho (up, down):  2.483E-08 0.000E+00

     total cpu time spent up to now is       12.1 secs

     End of self-consistent calculation

          k = 0.0000 0.0000 0.0000 ( 26051 PWs)   bands (ev):

   -20.8615 -20.2685 -20.2685 -19.9872 -19.9872 -19.9614 -19.9614 -19.9332
   -19.9278 -19.5436 -19.5436 -19.1467  -8.0450  -7.8158  -7.7649  -7.7649
    -7.6286  -7.6286  -7.2087  -7.0322  -7.0322  -6.8034  -6.8034  -6.6372
    -6.5761  -5.5060  -5.5060  -4.8237  -4.8237  -4.7554  -4.7554  -4.4134
    -4.1822  -3.4890  -3.4890  -2.7856  -2.2384  -2.2384  -2.1155  -2.0337
    -1.9712  -1.9712  -1.8187  -1.8187  -1.7685  -1.7475  -1.6893  -1.6893

          k =-0.1498-0.0865 0.3111 ( 26044 PWs)   bands (ev):

   -20.7673 -20.3191 -20.2531 -20.1711 -20.1457 -20.0501 -19.8657 -19.8129
   -19.7416 -19.5534 -19.4996 -19.2229  -7.9800  -7.8909  -7.8053  -7.7456
    -7.6139  -7.5464  -7.2173  -7.0107  -6.9827  -6.8414  -6.6805  -6.6447
    -6.3957  -5.6738  -5.5158  -5.2171  -4.8563  -4.6816  -4.5412  -4.2793
    -4.2199  -3.4777  -3.4113  -2.9244  -2.3881  -2.2998  -2.1499  -2.0855
    -2.0163  -1.9665  -1.9205  -1.8533  -1.7679  -1.7295  -1.6779  -1.6228

          k = 0.2996 0.1730-0.6221 ( 26018 PWs)   bands (ev):

   -20.5269 -20.5142 -20.3031 -20.2684 -20.1470 -20.1348 -19.7999 -19.7788
   -19.5685 -19.5556 -19.4263 -19.3910  -7.9456  -7.8831  -7.7935  -7.7591
    -7.6265  -7.5524  -7.1585  -7.0132  -6.9601  -6.8525  -6.5773  -6.5760
    -6.0972  -5.9410  -5.5716  -5.4116  -4.8502  -4.7615  -4.5246  -4.3540
    -3.7459  -3.6489  -3.3433  -3.1047  -2.5233  -2.3301  -2.1814  -2.1543
    -2.0646  -2.0314  -1.9287  -1.8532  -1.8421  -1.6837  -1.6646  -1.5700

          k =-0.1498 0.0865 0.6221 ( 26001 PWs)   bands (ev):

   -20.5750 -20.4003 -20.3825 -20.2289 -20.2035 -20.1220 -19.8034 -19.6995
   -19.6531 -19.5039 -19.4815 -19.3611  -7.9555  -7.8584  -7.8374  -7.7184
    -7.6422  -7.5316  -7.1605  -7.0657  -6.9986  -6.7191  -6.6379  -6.5722
    -6.1042  -5.8616  -5.7439  -5.2106  -5.0083  -4.8053  -4.4427  -4.2136
    -3.9942  -3.4475  -3.4035  -3.1292  -2.4938  -2.3843  -2.1708  -2.1080
    -2.0706  -2.0155  -1.9589  -1.8623  -1.8249  -1.6933  -1.6721  -1.5621

          k = 0.2996 0.3460-0.3111 ( 26027 PWs)   bands (ev):

   -20.6443 -20.4433 -20.2946 -20.2799 -20.1583 -20.0804 -19.8030 -19.6806
   -19.6646 -19.5480 -19.4741 -19.3302  -7.9683  -7.9350  -7.7637  -7.7378
    -7.6639  -7.5532  -7.2119  -7.1378  -6.9894  -6.6820  -6.6477  -6.5562
    -6.2527  -5.8918  -5.6206  -5.2432  -5.1865  -4.5997  -4.4073  -4.1155
    -3.8603  -3.6180  -3.3946  -3.0924  -2.3745  -2.2952  -2.1904  -2.1091
    -2.0408  -1.9756  -1.9113  -1.8914  -1.7883  -1.7473  -1.6724  -1.5439

          k = 0.1498 0.2595 0.0000 ( 25995 PWs)   bands (ev):

   -20.7940 -20.3704 -20.2968 -20.1253 -20.0917 -19.9888 -19.8930 -19.7995
   -19.7511 -19.5595 -19.5117 -19.2075  -8.0249  -7.9087  -7.7938  -7.7330
    -7.5936  -7.5838  -7.2993  -7.1222  -6.9034  -6.8053  -6.7129  -6.5734
    -6.5629  -5.6424  -5.4880  -5.2143  -5.0950  -4.5465  -4.3874  -4.2678
    -4.0483  -3.5653  -3.4731  -2.8698  -2.2425  -2.2131  -2.1642  -2.0714
    -2.0231  -1.9892  -1.8460  -1.8251  -1.7854  -1.7701  -1.6448  -1.6258

          k = 0.2996-0.1730-1.2442 ( 26010 PWs)   bands (ev):

   -20.6328 -20.5803 -20.3199 -20.1841 -20.0949 -20.0111 -19.8261 -19.7715
   -19.6367 -19.6023 -19.3756 -19.3530  -8.0029  -7.9542  -7.7945  -7.7566
    -7.5743  -7.5574  -7.3085  -7.2163  -6.8943  -6.8308  -6.6160  -6.5581
    -6.1506  -6.1120  -5.5731  -5.3436  -4.9921  -4.6738  -4.2349  -3.9734
    -3.8490  -3.8159  -3.3061  -3.0969  -2.2671  -2.1997  -2.1693  -2.1162
    -2.0296  -1.9415  -1.9317  -1.8362  -1.8291  -1.7642  -1.5999  -1.5875

          k = 0.0000 0.0000 0.9332 ( 25997 PWs)   bands (ev):

   -20.5077 -20.5077 -20.4075 -20.3373 -20.1089 -20.1089 -19.7086 -19.7086
   -19.5653 -19.4948 -19.4731 -19.4731  -7.9367  -7.9367  -7.7753  -7.6743
    -7.6610  -7.6610  -7.2214  -7.1017  -7.1017  -6.5701  -6.5701  -6.5225
    -6.0154  -6.0154  -6.0068  -5.2665  -4.9029  -4.9029  -4.1650  -3.9675
    -3.9675  -3.4675  -3.4674  -3.3030  -2.3046  -2.3046  -2.1629  -2.0744
    -2.0096  -2.0096  -1.9312  -1.8662  -1.8662  -1.7295  -1.7295  -1.5148

          k = 0.4494 0.2595 0.0000 ( 26019 PWs)   bands (ev):

   -20.6687 -20.4576 -20.4452 -20.1845 -20.0257 -20.0017 -19.8430 -19.8278
   -19.6375 -19.5125 -19.4671 -19.3166  -7.9930  -7.9450  -7.8600  -7.6831
    -7.6143  -7.5471  -7.3249  -7.1560  -7.0077  -6.7064  -6.6380  -6.5883
    -6.2805  -5.8450  -5.7570  -5.2930  -4.9912  -4.6749  -4.1694  -4.1299
    -3.8961  -3.5812  -3.4366  -3.0690  -2.2421  -2.2330  -2.1532  -2.1213
    -2.0428  -1.9689  -1.8897  -1.8611  -1.7929  -1.7363  -1.6641  -1.5643

          k = 0.2996 0.1730 0.3111 ( 26032 PWs)   bands (ev):

   -20.7038 -20.3802 -20.2681 -20.2501 -20.1434 -20.0688 -19.8221 -19.7914
   -19.6920 -19.5425 -19.4680 -19.2708  -7.9898  -7.9245  -7.8307  -7.6831
    -7.6617  -7.4845  -7.2546  -7.0945  -6.8880  -6.8022  -6.7414  -6.6197
    -6.2841  -5.6685  -5.4711  -5.3805  -5.1422  -4.7155  -4.3813  -4.1512
    -4.0008  -3.5393  -3.4118  -2.9613  -2.3970  -2.3164  -2.2172  -2.1611
    -2.0374  -1.9892  -1.8955  -1.8525  -1.7498  -1.7054  -1.6329  -1.6175

          k = 0.4494-0.2595-0.9332 ( 26032 PWs)   bands (ev):

   -20.5415 -20.5302 -20.3606 -20.2736 -20.1268 -20.0337 -19.8712 -19.7673
   -19.5820 -19.5192 -19.4508 -19.3431  -8.0214  -7.9071  -7.8614  -7.6837
    -7.6295  -7.4660  -7.3137  -7.0576  -6.9122  -6.8474  -6.6672  -6.6250
    -5.9678  -5.9280  -5.5555  -5.4023  -5.1890  -4.8180  -4.3284  -4.0187
    -3.7040  -3.6281  -3.4499  -3.0446  -2.3868  -2.3408  -2.2962  -2.1633
    -2.1202  -2.0103  -1.8330  -1.8057  -1.7629  -1.7195  -1.6357  -1.5741

          k = 0.2996-0.3460-0.6221 ( 26052 PWs)   bands (ev):

   -20.4836 -20.4638 -20.3431 -20.3204 -20.1709 -20.1656 -19.7760 -19.7619
   -19.5703 -19.5567 -19.4209 -19.3801  -8.0352  -7.8096  -7.7771  -7.7503
    -7.7074  -7.4668  -7.1925  -7.0725  -6.8770  -6.8284  -6.6361  -6.6301
    -5.9282  -5.7903  -5.5984  -5.4679  -5.0972  -5.0543  -4.2362  -4.1576
    -3.7093  -3.6669  -3.4372  -3.0260  -2.5573  -2.3619  -2.2908  -2.2098
    -2.1375  -1.9713  -1.8892  -1.8406  -1.8082  -1.6675  -1.6456  -1.5511

          k = 0.0000 0.0000-1.8663 ( 26100 PWs)   bands (ev):

   -20.4376 -20.3920 -20.3055 -20.3055 -20.2939 -20.2939 -19.6843 -19.6843
   -19.6248 -19.6248 -19.4010 -19.3639  -8.0916  -7.7583  -7.7583  -7.7444
    -7.7444  -7.4386  -7.2475  -7.0760  -6.7645  -6.7645  -6.7324  -6.7324
    -5.7129  -5.5508  -5.4764  -5.4764  -5.4402  -5.4402  -3.9807  -3.9807
    -3.7606  -3.7606  -3.4393  -2.9703  -2.5926  -2.3689  -2.3689  -2.2604
    -2.2604  -1.9031  -1.8877  -1.7577  -1.7577  -1.6836  -1.6836  -1.5201

          k = 0.2996-0.3460 0.3111 ( 26027 PWs)   bands (ev):

   -20.6445 -20.4395 -20.3153 -20.2647 -20.1541 -20.0806 -19.8064 -19.7011
   -19.6295 -19.5707 -19.4618 -19.3332  -7.9846  -7.8991  -7.8040  -7.7240
    -7.6430  -7.5580  -7.2704  -7.0990  -6.9636  -6.7272  -6.6047  -6.5805
    -6.2394  -5.8151  -5.7340  -5.2852  -5.0383  -4.6739  -4.4938  -4.0085
    -3.8276  -3.6085  -3.4857  -3.0606  -2.3860  -2.2581  -2.2072  -2.1068
    -2.0531  -1.9797  -1.9161  -1.8882  -1.8088  -1.7103  -1.6724  -1.5543

     highest occupied level (ev):    -1.5148

!    total energy              =    -413.79011674 Ry
     estimated scf accuracy    <          1.1E-09 Ry

     The total energy is the sum of the following terms:
     one-electron contribution =    -275.26985635 Ry
     hartree contribution      =     174.30835210 Ry
     xc contribution           =    -102.44803612 Ry
     ewald contribution        =    -210.38057638 Ry

     convergence has been achieved in  13 iterations

     Forces acting on atoms (cartesian axes, Ry/au):

     atom    1 type  2   force =    -0.00735364   -0.00963887   -0.01937131
     atom    2 type  2   force =     0.00735364    0.00963887    0.01937131
     atom    3 type  2   force =     0.01202433   -0.00154900   -0.01937131
     atom    4 type  2   force =    -0.01202433    0.00154900    0.01937131
     atom    5 type  2   force =    -0.00467069    0.01118787   -0.01937131
     atom    6 type  2   force =     0.00467069   -0.01118787    0.01937131
     atom    7 type  2   force =     0.02912994   -0.01625857    0.01599062
     atom    8 type  2   force =    -0.02912994    0.01625857   -0.01599062
     atom    9 type  2   force =    -0.00048464    0.03335655    0.01599062
     atom   10 type  2   force =     0.00048464   -0.03335655   -0.01599062
     atom   11 type  2   force =    -0.02864530   -0.01709798    0.01599062
     atom   12 type  2   force =     0.02864530    0.01709798   -0.01599062
     atom   13 type  1   force =    -0.02447017    0.03262938   -0.07483756
     atom   14 type  1   force =     0.02447017   -0.03262938    0.07483756
     atom   15 type  1   force =    -0.01602279   -0.03750648   -0.07483756
     atom   16 type  1   force =     0.01602279    0.03750648    0.07483756
     atom   17 type  1   force =     0.04049296    0.00487709   -0.07483756
     atom   18 type  1   force =    -0.04049296   -0.00487709    0.07483756
     atom   19 type  1   force =     0.03271052   -0.03093597    0.08182298
     atom   20 type  1   force =    -0.03271052    0.03093597   -0.08182298
     atom   21 type  1   force =     0.01043608    0.04379612    0.08182298
     atom   22 type  1   force =    -0.01043608   -0.04379612   -0.08182298
     atom   23 type  1   force =    -0.04314659   -0.01286015    0.08182298
     atom   24 type  1   force =     0.04314659    0.01286015   -0.08182298
     atom   25 type  1   force =     0.00675070    0.06771448    0.00881281
     atom   26 type  1   force =    -0.00675070   -0.06771448   -0.00881281
     atom   27 type  1   force =    -0.06201781   -0.02801096    0.00881281
     atom   28 type  1   force =     0.06201781    0.02801096   -0.00881281
     atom   29 type  1   force =     0.05526710   -0.03970352    0.00881281
     atom   30 type  1   force =    -0.05526710    0.03970352   -0.00881281
     atom   31 type  1   force =     0.01818485   -0.04918090   -0.02031043
     atom   32 type  1   force =    -0.01818485    0.04918090    0.02031043
     atom   33 type  1   force =     0.03349948    0.04033899   -0.02031043
     atom   34 type  1   force =    -0.03349948   -0.04033899    0.02031043
     atom   35 type  1   force =    -0.05168434    0.00884191   -0.02031043
     atom   36 type  1   force =     0.05168434   -0.00884191    0.02031043

     Total force =     0.393045     Total SCF correction =     0.000043


     Computing stress (Cartesian axis) and pressure

          total   stress  (Ry/bohr**3)                   (kbar)     P=       98.83
   0.00060380  -0.00000000   0.00000000           88.82       -0.00        0.00
   0.00000000   0.00060380   0.00000000            0.00       88.82        0.00
  -0.00000000   0.00000000   0.00080795           -0.00        0.00      118.85


     Writing all to output data dir ./iceII/iceII.save/ :
     XML data file, charge density, pseudopotentials, collected wavefunctions

     init_run     :      0.86s CPU      0.92s WALL (       1 calls)
     electrons    :     10.83s CPU     11.03s WALL (       1 calls)
     forces       :      0.12s CPU      0.12s WALL (       1 calls)
     stress       :      0.76s CPU      0.77s WALL (       1 calls)

     Called by init_run:
     wfcinit      :      0.32s CPU      0.33s WALL (       1 calls)
     potinit      :      0.04s CPU      0.05s WALL (       1 calls)
     hinit0       :      0.38s CPU      0.39s WALL (       1 calls)

     Called by electrons:
     c_bands      :      9.19s CPU      9.30s WALL (      13 calls)
     sum_band     :      1.27s CPU      1.30s WALL (      13 calls)
     v_of_rho     :      0.26s CPU      0.27s WALL (      14 calls)
     newd         :      0.05s CPU      0.05s WALL (      14 calls)
     mix_rho      :      0.03s CPU      0.04s WALL (      13 calls)

     Called by c_bands:
     init_us_2    :      0.14s CPU      0.14s WALL (     116 calls)
     cegterg      :      8.80s CPU      8.88s WALL (      52 calls)

     Called by *egterg:
     cdiaghg      :      0.77s CPU      0.77s WALL (     199 calls)
     h_psi        :      6.92s CPU      7.00s WALL (     203 calls)
     s_psi        :      0.26s CPU      0.27s WALL (     203 calls)
     g_psi        :      0.02s CPU      0.02s WALL (     147 calls)

     Called by h_psi:
     h_psi:calbec :      0.47s CPU      0.47s WALL (     203 calls)
     vloc_psi     :      6.14s CPU      6.20s WALL (     203 calls)
     add_vuspsi   :      0.28s CPU      0.28s WALL (     203 calls)

     General routines
     calbec       :      0.64s CPU      0.65s WALL (     275 calls)
     fft          :      0.50s CPU      0.51s WALL (     162 calls)
     ffts         :      0.01s CPU      0.01s WALL (      13 calls)
     fftw         :      6.39s CPU      6.46s WALL (   18150 calls)

     Parallel routines

     PWSCF        :     12.85s CPU     13.43s WALL


   This run was terminated on:  18:22:42  21Mar2026            

=------------------------------------------------------------------------------=
   JOB DONE.
=------------------------------------------------------------------------------=
