
     Program PWSCF v.7.3.1 starts on 21Mar2026 at 18:24:56 

     This program is part of the open-source Quantum ESPRESSO suite
     for quantum simulation of materials; please cite
         "P. Giannozzi et al., J. Phys.:Condens. Matter 21 395502 (2009);
         "P. Giannozzi et al., J. Phys.:Condens. Matter 29 465901 (2017);
         "P. Giannozzi et al., J. Chem. Phys. 152 154105 (2020);
          URL http://www.quantum-espresso.org", 
     in publications or presentations arising from this work. More details at
     http://www.quantum-espresso.org/quote

     Parallel version (MPI), running on   128 processors

     MPI processes distributed on     1 nodes
     243017 MiB available memory on the printing compute node when the environment starts

     Waiting for input...
     Reading input from standard input

     Current dimensions of program PWSCF are:
     Max number of different atomic species (ntypx) = 10
     Max number of k-points (npk) =  40000
     Max angular momentum in pseudopotentials (lmaxx) =  4

     K-points division:     npool     =       4
     R & G space division:  proc/nbgrp/npool/nimage =      32
     Subspace diagonalization in iterative solution of the eigenvalue problem:
     a serial algorithm will be used


     Parallelization info
     --------------------
     sticks:   dense  smooth     PW     G-vecs:    dense   smooth      PW
     Min         163     163     48                 6541     6541    1053
     Max         164     164     49                 6546     6546    1056
     Sum        5241    5241   1555               209387   209387   33745

     Using Slab Decomposition



     bravais-lattice index     =            5
     lattice parameter (alat)  =      14.1140  a.u.
     unit-cell volume          =    1816.5251 (a.u.)^3
     number of atoms/cell      =           36
     number of atomic types    =            2
     number of electrons       =        96.00
     number of Kohn-Sham states=           48
     kinetic-energy cutoff     =      90.0000  Ry
     charge density cutoff     =     360.0000  Ry
     scf convergence threshold =      1.0E-07
     mixing beta               =       0.7000
     number of iterations used =            8  plain     mixing
     Exchange-correlation=  SLA  PW   PBE  PBE
                           (   1   4   3   4   0   0   0)

     celldm(1)=  14.113985  celldm(2)=   0.000000  celldm(3)=   0.000000
     celldm(4)=  -0.392337  celldm(5)=   0.000000  celldm(6)=   0.000000

     crystal axes: (cart. coord. in units of alat)
               a(1) = (   0.834367  -0.481722   0.267909 )  
               a(2) = (   0.000000   0.963444   0.267909 )  
               a(3) = (  -0.834367  -0.481722   0.267909 )  

     reciprocal axes: (cart. coord. in units 2 pi/alat)
               b(1) = (  0.599257 -0.345981  1.244203 )  
               b(2) = ( -0.000000  0.691962  1.244203 )  
               b(3) = ( -0.599257 -0.345981  1.244203 )  


     PseudoPot. # 1 for H  read from file:
     ./H.pbe-van_ak.UPF
     MD5 check sum: 077eb6d537518a38cb46c6de387227b7
     Pseudo is Ultrasoft, Zval =  1.0
     Generated by new atomic code, or converted to UPF format
     Using radial grid of  615 points,  1 beta functions with: 
                l(1) =   0
     Q(r) pseudized with  8 coefficients,  rinner =    0.800

     PseudoPot. # 2 for O  read from file:
     ./O.pbe-van_ak.UPF
     MD5 check sum: 78c19812648e8988a0fe644b0f25305e
     Pseudo is Ultrasoft, Zval =  6.0
     Generated by new atomic code, or converted to UPF format
     Using radial grid of  737 points,  4 beta functions with: 
                l(1) =   0
                l(2) =   0
                l(3) =   1
                l(4) =   1
     Q(r) pseudized with  8 coefficients,  rinner =    0.800   0.800   0.800


     atomic species   valence    mass     pseudopotential
     H                 1.00     1.00800     H ( 1.00)
     O                 6.00    16.00000     O ( 1.00)

      6 Sym. Ops., with inversion, found



   Cartesian axes

     site n.     atom                  positions (alat units)
         1        O      tau(   1) = (  -0.4847673  -0.5197781   0.3083633  )
         2        O      tau(   2) = (   0.4847673   0.5197782   0.4953638  )
         3        O      tau(   3) = (   0.6925247  -0.1599317   0.3083633  )
         4        O      tau(   4) = (  -0.6925248   0.1599317   0.4953638  )
         5        O      tau(   5) = (  -0.2077574   0.6797099   0.3083633  )
         6        O      tau(   6) = (   0.2077574  -0.6797099   0.4953638  )
         7        O      tau(   7) = (   0.1218176   0.3323883   0.4179381  )
         8        O      tau(   8) = (  -0.1218176  -0.3323883   0.3857890  )
         9        O      tau(   9) = (  -0.3487655  -0.0606970   0.4179381  )
        10        O      tau(  10) = (   0.3487655   0.0606970   0.3857890  )
        11        O      tau(  11) = (   0.2269479  -0.2716913   0.4179381  )
        12        O      tau(  12) = (  -0.2269479   0.2716912   0.3857890  )
        13        H      tau(  13) = (  -0.5381668  -0.4032014   0.2796970  )
        14        H      tau(  14) = (   0.5381668   0.4032014   0.5240301  )
        15        H      tau(  15) = (   0.6182661  -0.2644654   0.2796970  )
        16        H      tau(  16) = (  -0.6182661   0.2644654   0.5240301  )
        17        H      tau(  17) = (  -0.0800993   0.6676668   0.2796970  )
        18        H      tau(  18) = (   0.0800993  -0.6676668   0.5240301  )
        19        H      tau(  19) = (  -0.4872704  -0.4817221   0.4326731  )
        20        H      tau(  20) = (   0.4872704   0.4817221   0.3710540  )
        21        H      tau(  21) = (   0.6608188  -0.1811275   0.4326731  )
        22        H      tau(  22) = (  -0.6608188   0.1811275   0.3710540  )
        23        H      tau(  23) = (  -0.1735484   0.6628496   0.4326731  )
        24        H      tau(  24) = (   0.1735484  -0.6628496   0.3710540  )
        25        H      tau(  25) = (   0.2703349  -0.1502973   0.4058822  )
        26        H      tau(  26) = (  -0.2703350   0.1502973   0.3978449  )
        27        H      tau(  27) = (  -0.0050062   0.3092656   0.4058822  )
        28        H      tau(  28) = (   0.0050062  -0.3092656   0.3978449  )
        29        H      tau(  29) = (  -0.2653287  -0.1589683   0.4058822  )
        30        H      tau(  30) = (   0.2653287   0.1589683   0.3978449  )
        31        H      tau(  31) = (   0.3178939  -0.3347969   0.3493534  )
        32        H      tau(  32) = (  -0.3178939   0.3347969   0.4543737  )
        33        H      tau(  33) = (   0.1309957   0.4427026   0.3493534  )
        34        H      tau(  34) = (  -0.1309956  -0.4427026   0.4543737  )
        35        H      tau(  35) = (  -0.4488895  -0.1079057   0.3493534  )
        36        H      tau(  36) = (   0.4488895   0.1079057   0.4543737  )

     number of k points=    14
                       cart. coord. in units 2pi/alat
        k(    1) = (   0.0000000   0.0000000   0.0000000), wk =   0.0312500
        k(    2) = (  -0.1498141  -0.0864952   0.3110508), wk =   0.1875000
        k(    3) = (   0.2996283   0.1729905  -0.6221017), wk =   0.0937500
        k(    4) = (  -0.1498141   0.0864952   0.6221017), wk =   0.1875000
        k(    5) = (   0.2996283   0.3459809  -0.3110508), wk =   0.1875000
        k(    6) = (   0.1498141   0.2594857   0.0000000), wk =   0.1875000
        k(    7) = (   0.2996283  -0.1729905  -1.2442034), wk =   0.0937500
        k(    8) = (   0.0000000   0.0000000   0.9331525), wk =   0.0625000
        k(    9) = (   0.4494424   0.2594857   0.0000000), wk =   0.1875000
        k(   10) = (   0.2996283   0.1729905   0.3110508), wk =   0.1875000
        k(   11) = (   0.4494424  -0.2594857  -0.9331525), wk =   0.1875000
        k(   12) = (   0.2996283  -0.3459809  -0.6221017), wk =   0.1875000
        k(   13) = (   0.0000000   0.0000000  -1.8663050), wk =   0.0312500
        k(   14) = (   0.2996283  -0.3459809   0.3110508), wk =   0.1875000

     Dense  grid:   209387 G-vectors     FFT dimensions: (  90,  90,  90)

     Estimated max dynamical RAM per process >      14.06 MB

     Estimated total dynamical RAM >       1.61 GB

     Initial potential from superposition of free atoms

     starting charge      95.9998, renormalised to      96.0000
     Starting wfcs are   72 randomized atomic wfcs

     total cpu time spent up to now is        1.1 secs

     per-process dynamical memory:    18.5 Mb

     Self-consistent Calculation

     iteration #  1     ecut=    90.00 Ry     beta= 0.70
     Davidson diagonalization with overlap
     ethr =  1.00E-02,  avg # of iterations =  2.0

     total cpu time spent up to now is        1.9 secs

     total energy              =    -412.21482451 Ry
     estimated scf accuracy    <       3.94077455 Ry

     iteration #  2     ecut=    90.00 Ry     beta= 0.70
     Davidson diagonalization with overlap
     ethr =  4.10E-03,  avg # of iterations =  3.0

     total cpu time spent up to now is        2.9 secs

     total energy              =    -413.48205233 Ry
     estimated scf accuracy    <       2.00334339 Ry

     iteration #  3     ecut=    90.00 Ry     beta= 0.70
     Davidson diagonalization with overlap
     ethr =  2.09E-03,  avg # of iterations =  2.0

     total cpu time spent up to now is        3.6 secs

     total energy              =    -413.73204897 Ry
     estimated scf accuracy    <       0.08223219 Ry

     iteration #  4     ecut=    90.00 Ry     beta= 0.70
     Davidson diagonalization with overlap
     ethr =  8.57E-05,  avg # of iterations =  4.4

     total cpu time spent up to now is        4.7 secs

     total energy              =    -413.79249713 Ry
     estimated scf accuracy    <       0.10156023 Ry

     iteration #  5     ecut=    90.00 Ry     beta= 0.70
     Davidson diagonalization with overlap
     ethr =  8.57E-05,  avg # of iterations =  2.0

     total cpu time spent up to now is        5.4 secs

     total energy              =    -413.79637152 Ry
     estimated scf accuracy    <       0.01668098 Ry

     iteration #  6     ecut=    90.00 Ry     beta= 0.70
     Davidson diagonalization with overlap
     ethr =  1.74E-05,  avg # of iterations =  2.0

     total cpu time spent up to now is        6.1 secs

     total energy              =    -413.79675410 Ry
     estimated scf accuracy    <       0.00416534 Ry

     iteration #  7     ecut=    90.00 Ry     beta= 0.70
     Davidson diagonalization with overlap
     ethr =  4.34E-06,  avg # of iterations =  2.4

     total cpu time spent up to now is        6.9 secs

     total energy              =    -413.79769899 Ry
     estimated scf accuracy    <       0.00008201 Ry

     iteration #  8     ecut=    90.00 Ry     beta= 0.70
     Davidson diagonalization with overlap
     ethr =  8.54E-08,  avg # of iterations =  5.2

     total cpu time spent up to now is        8.1 secs

     total energy              =    -413.79779528 Ry
     estimated scf accuracy    <       0.00019908 Ry

     iteration #  9     ecut=    90.00 Ry     beta= 0.70
     Davidson diagonalization with overlap
     ethr =  8.54E-08,  avg # of iterations =  2.0

     total cpu time spent up to now is        8.9 secs

     total energy              =    -413.79778357 Ry
     estimated scf accuracy    <       0.00005330 Ry

     iteration # 10     ecut=    90.00 Ry     beta= 0.70
     Davidson diagonalization with overlap
     ethr =  5.55E-08,  avg # of iterations =  2.6

     total cpu time spent up to now is        9.7 secs

     total energy              =    -413.79779339 Ry
     estimated scf accuracy    <       0.00000231 Ry

     iteration # 11     ecut=    90.00 Ry     beta= 0.70
     Davidson diagonalization with overlap
     ethr =  2.41E-09,  avg # of iterations =  3.3

     total cpu time spent up to now is       10.6 secs

     total energy              =    -413.79779414 Ry
     estimated scf accuracy    <       0.00000025 Ry

     iteration # 12     ecut=    90.00 Ry     beta= 0.70
     Davidson diagonalization with overlap
     ethr =  2.59E-10,  avg # of iterations =  3.1

     total cpu time spent up to now is       11.3 secs

     End of self-consistent calculation

          k = 0.0000 0.0000 0.0000 ( 26207 PWs)   bands (ev):

   -20.8618 -20.2758 -20.2758 -19.9976 -19.9976 -19.9715 -19.9715 -19.9439
   -19.9390 -19.5589 -19.5589 -19.1662  -8.0541  -7.8264  -7.7749  -7.7749
    -7.6416  -7.6416  -7.2215  -7.0463  -7.0463  -6.8180  -6.8180  -6.6535
    -6.5921  -5.5307  -5.5307  -4.8532  -4.8532  -4.7845  -4.7845  -4.4444
    -4.2156  -3.5247  -3.5247  -2.8230  -2.2682  -2.2682  -2.1466  -2.0648
    -2.0030  -2.0030  -1.8509  -1.8509  -1.8025  -1.7815  -1.7238  -1.7238

          k =-0.1498-0.0865 0.3111 ( 26214 PWs)   bands (ev):

   -20.7687 -20.3259 -20.2606 -20.1794 -20.1541 -20.0595 -19.8772 -19.8249
   -19.7545 -19.5685 -19.5153 -19.2416  -7.9896  -7.9009  -7.8157  -7.7567
    -7.6267  -7.5594  -7.2296  -7.0243  -6.9971  -6.8559  -6.6967  -6.6608
    -6.4141  -5.6976  -5.5409  -5.2436  -4.8849  -4.7119  -4.5715  -4.3115
    -4.2523  -3.5135  -3.4474  -2.9615  -2.4163  -2.3287  -2.1805  -2.1163
    -2.0477  -1.9987  -1.9528  -1.8857  -1.8014  -1.7630  -1.7122  -1.6575

          k = 0.2996 0.1730-0.6221 ( 26174 PWs)   bands (ev):

   -20.5309 -20.5186 -20.3098 -20.2761 -20.1553 -20.1434 -19.8119 -19.7914
   -19.5832 -19.5707 -19.4426 -19.4080  -7.9557  -7.8934  -7.8040  -7.7703
    -7.6389  -7.5653  -7.1711  -7.0268  -6.9743  -6.8669  -6.5944  -6.5932
    -6.1184  -5.9629  -5.5967  -5.4367  -4.8790  -4.7906  -4.5555  -4.3856
    -3.7812  -3.6828  -3.3797  -3.1413  -2.5500  -2.3585  -2.2116  -2.1844
    -2.0955  -2.0630  -1.9608  -1.8861  -1.8746  -1.7175  -1.6989  -1.6050

          k =-0.1498 0.0865 0.6221 ( 26198 PWs)   bands (ev):

   -20.5785 -20.4058 -20.3885 -20.2367 -20.2115 -20.1307 -19.8155 -19.7128
   -19.6670 -19.5195 -19.4972 -19.3784  -7.9655  -7.8688  -7.8479  -7.7296
    -7.6546  -7.5449  -7.1732  -7.0785  -7.0122  -6.7350  -6.6545  -6.5895
    -6.1253  -5.8841  -5.7674  -5.2373  -5.0364  -4.8343  -4.4739  -4.2458
    -4.0273  -3.4829  -3.4402  -3.1653  -2.5209  -2.4122  -2.2009  -2.1391
    -2.1018  -2.0469  -1.9909  -1.8948  -1.8577  -1.7271  -1.7062  -1.5973

          k = 0.2996 0.3460-0.3111 ( 26183 PWs)   bands (ev):

   -20.6470 -20.4483 -20.3017 -20.2867 -20.1671 -20.0896 -19.8154 -19.6940
   -19.6784 -19.5632 -19.4900 -19.3478  -7.9780  -7.9451  -7.7747  -7.7489
    -7.6758  -7.5658  -7.2236  -7.1502  -7.0029  -6.6982  -6.6640  -6.5736
    -6.2727  -5.9146  -5.6450  -5.2693  -5.2134  -4.6308  -4.4385  -4.1483
    -3.8945  -3.6528  -3.4306  -3.1291  -2.4031  -2.3242  -2.2204  -2.1395
    -2.0720  -2.0075  -1.9432  -1.9240  -1.8218  -1.7807  -1.7065  -1.5793

          k = 0.1498 0.2595 0.0000 ( 26174 PWs)   bands (ev):

   -20.7950 -20.3763 -20.3036 -20.1342 -20.1009 -19.9991 -19.9042 -19.8118
   -19.7638 -19.5745 -19.5273 -19.2264  -8.0342  -7.9185  -7.8043  -7.7443
    -7.6061  -7.5965  -7.3102  -7.1350  -6.9176  -6.8199  -6.7289  -6.5903
    -6.5800  -5.6669  -5.5137  -5.2407  -5.1216  -4.5774  -4.4197  -4.2996
    -4.0820  -3.6007  -3.5085  -2.9077  -2.2722  -2.2432  -2.1947  -2.1020
    -2.0542  -2.0206  -1.8786  -1.8583  -1.8186  -1.8038  -1.6795  -1.6607

          k = 0.2996-0.1730-1.2442 ( 26152 PWs)   bands (ev):

   -20.6356 -20.5839 -20.3263 -20.1926 -20.1039 -20.0215 -19.8379 -19.7843
   -19.6505 -19.6168 -19.3926 -19.3703  -8.0123  -7.9641  -7.8056  -7.7679
    -7.5864  -7.5700  -7.3188  -7.2278  -6.9082  -6.8454  -6.6323  -6.5751
    -6.1723  -6.1336  -5.5980  -5.3690  -5.0192  -4.7045  -4.2686  -4.0073
    -3.8836  -3.8489  -3.3423  -3.1342  -2.2964  -2.2298  -2.2002  -2.1462
    -2.0604  -1.9739  -1.9634  -1.8691  -1.8618  -1.7979  -1.6351  -1.6225

          k = 0.0000 0.0000 0.9332 ( 26129 PWs)   bands (ev):

   -20.5119 -20.5119 -20.4127 -20.3440 -20.1182 -20.1182 -19.7220 -19.7220
   -19.5797 -19.5108 -19.4889 -19.4889  -7.9468  -7.9468  -7.7866  -7.6849
    -7.6730  -7.6730  -7.2332  -7.1142  -7.1142  -6.5872  -6.5872  -6.5401
    -6.0370  -6.0370  -6.0288  -5.2928  -4.9318  -4.9318  -4.1975  -4.0008
    -4.0008  -3.5031  -3.5031  -3.3382  -2.3338  -2.3338  -2.1930  -2.1060
    -2.0409  -2.0409  -1.9637  -1.8986  -1.8986  -1.7631  -1.7631  -1.5505

          k = 0.4494 0.2595 0.0000 ( 26183 PWs)   bands (ev):

   -20.6712 -20.4623 -20.4502 -20.1931 -20.0355 -20.0122 -19.8547 -19.8400
   -19.6513 -19.5280 -19.4832 -19.3343  -8.0026  -7.9548  -7.8707  -7.6948
    -7.6265  -7.5594  -7.3354  -7.1679  -7.0206  -6.7220  -6.6545  -6.6049
    -6.3010  -5.8683  -5.7808  -5.3185  -5.0191  -4.7052  -4.2026  -4.1630
    -3.9305  -3.6164  -3.4718  -3.1062  -2.2717  -2.2627  -2.1842  -2.1514
    -2.0737  -2.0006  -1.9218  -1.8936  -1.8262  -1.7703  -1.6986  -1.5997

          k = 0.2996 0.1730 0.3111 ( 26185 PWs)   bands (ev):

   -20.7059 -20.3862 -20.2750 -20.2579 -20.1518 -20.0781 -19.8342 -19.8035
   -19.7056 -19.5575 -19.4842 -19.2890  -7.9995  -7.9345  -7.8411  -7.6944
    -7.6741  -7.4980  -7.2660  -7.1074  -6.9022  -6.8169  -6.7569  -6.6365
    -6.3039  -5.6928  -5.4965  -5.4063  -5.1683  -4.7455  -4.4132  -4.1846
    -4.0339  -3.5753  -3.4474  -2.9988  -2.4254  -2.3449  -2.2470  -2.1908
    -2.0684  -2.0206  -1.9278  -1.8854  -1.7836  -1.7394  -1.6675  -1.6520

          k = 0.4494-0.2595-0.9332 ( 26191 PWs)   bands (ev):

   -20.5452 -20.5344 -20.3665 -20.2813 -20.1355 -20.0432 -19.8828 -19.7799
   -19.5968 -19.5345 -19.4670 -19.3606  -8.0309  -7.9173  -7.8719  -7.6955
    -7.6416  -7.4795  -7.3244  -7.0702  -6.9261  -6.8617  -6.6833  -6.6418
    -5.9903  -5.9505  -5.5805  -5.4276  -5.2155  -4.8473  -4.3609  -4.0526
    -3.7384  -3.6642  -3.4857  -3.0815  -2.4157  -2.3691  -2.3249  -2.1929
    -2.1502  -2.0415  -1.8659  -1.8390  -1.7967  -1.7534  -1.6703  -1.6091

          k = 0.2996-0.3460-0.6221 ( 26224 PWs)   bands (ev):

   -20.4881 -20.4689 -20.3493 -20.3273 -20.1789 -20.1737 -19.7884 -19.7746
   -19.5851 -19.5718 -19.4371 -19.3974  -8.0447  -7.8204  -7.7880  -7.7616
    -7.7191  -7.4804  -7.2050  -7.0848  -6.8916  -6.8432  -6.6527  -6.6468
    -5.9508  -5.8135  -5.6230  -5.4927  -5.1243  -5.0820  -4.2692  -4.1909
    -3.7437  -3.7013  -3.4741  -3.0630  -2.5838  -2.3898  -2.3196  -2.2392
    -2.1678  -2.0029  -1.9216  -1.8735  -1.8415  -1.7017  -1.6800  -1.5863

          k = 0.0000 0.0000-1.8663 ( 26202 PWs)   bands (ev):

   -20.4429 -20.3987 -20.3116 -20.3116 -20.3006 -20.3006 -19.6976 -19.6976
   -19.6394 -19.6394 -19.4175 -19.3814  -8.1007  -7.7698  -7.7698  -7.7556
    -7.7556  -7.4519  -7.2599  -7.0880  -6.7799  -6.7799  -6.7479  -6.7479
    -5.7376  -5.5746  -5.5007  -5.5007  -5.4667  -5.4667  -4.0155  -4.0155
    -3.7944  -3.7944  -3.4769  -3.0076  -2.6190  -2.3965  -2.3965  -2.2890
    -2.2890  -1.9354  -1.9199  -1.7915  -1.7915  -1.7176  -1.7176  -1.5556

          k = 0.2996-0.3460 0.3111 ( 26183 PWs)   bands (ev):

   -20.6472 -20.4447 -20.3218 -20.2720 -20.1629 -20.0898 -19.8187 -19.7142
   -19.6440 -19.5853 -19.4779 -19.3507  -7.9943  -7.9093  -7.8149  -7.7356
    -7.6545  -7.5707  -7.2816  -7.1117  -6.9771  -6.7430  -6.6213  -6.5977
    -6.2597  -5.8383  -5.7574  -5.3119  -5.0653  -4.7044  -4.5248  -4.0421
    -3.8624  -3.6433  -3.5205  -3.0979  -2.4144  -2.2876  -2.2371  -2.1371
    -2.0839  -2.0116  -1.9478  -1.9210  -1.8421  -1.7440  -1.7067  -1.5896

     highest occupied level (ev):    -1.5505

!    total energy              =    -413.79779416 Ry
     estimated scf accuracy    <       0.00000006 Ry

     The total energy is the sum of the following terms:
     one-electron contribution =    -276.04740248 Ry
     hartree contribution      =     174.57978978 Ry
     xc contribution           =    -102.38789795 Ry
     ewald contribution        =    -209.94228351 Ry

     convergence has been achieved in  12 iterations

     Forces acting on atoms (cartesian axes, Ry/au):

     atom    1 type  2   force =    -0.00888014   -0.00562967   -0.01659342
     atom    2 type  2   force =     0.00888014    0.00562967    0.01659342
     atom    3 type  2   force =     0.00931551   -0.00487559   -0.01659342
     atom    4 type  2   force =    -0.00931551    0.00487559    0.01659342
     atom    5 type  2   force =    -0.00043537    0.01050527   -0.01659342
     atom    6 type  2   force =     0.00043537   -0.01050527    0.01659342
     atom    7 type  2   force =     0.02584066   -0.01404598    0.01397485
     atom    8 type  2   force =    -0.02584066    0.01404598   -0.01397485
     atom    9 type  2   force =    -0.00075615    0.02940166    0.01397485
     atom   10 type  2   force =     0.00075615   -0.02940166   -0.01397485
     atom   11 type  2   force =    -0.02508451   -0.01535568    0.01397485
     atom   12 type  2   force =     0.02508451    0.01535568   -0.01397485
     atom   13 type  1   force =    -0.02297950    0.02944149   -0.07359282
     atom   14 type  1   force =     0.02297950   -0.02944149    0.07359282
     atom   15 type  1   force =    -0.01400733   -0.03462157   -0.07359282
     atom   16 type  1   force =     0.01400733    0.03462157    0.07359282
     atom   17 type  1   force =     0.03698683    0.00518009   -0.07359282
     atom   18 type  1   force =    -0.03698683   -0.00518009    0.07359282
     atom   19 type  1   force =     0.03256838   -0.03170480    0.07793464
     atom   20 type  1   force =    -0.03256838    0.03170480   -0.07793464
     atom   21 type  1   force =     0.01117297    0.04405745    0.07793464
     atom   22 type  1   force =    -0.01117297   -0.04405745   -0.07793464
     atom   23 type  1   force =    -0.04374136   -0.01235265    0.07793464
     atom   24 type  1   force =     0.04374136    0.01235265   -0.07793464
     atom   25 type  1   force =     0.00564030    0.06391248    0.00902390
     atom   26 type  1   force =    -0.00564030   -0.06391248   -0.00902390
     atom   27 type  1   force =    -0.05816998   -0.02707160    0.00902390
     atom   28 type  1   force =     0.05816998    0.02707160   -0.00902390
     atom   29 type  1   force =     0.05252968   -0.03684088    0.00902390
     atom   30 type  1   force =    -0.05252968    0.03684088   -0.00902390
     atom   31 type  1   force =     0.01562505   -0.04704071   -0.01832195
     atom   32 type  1   force =    -0.01562505    0.04704071    0.01832195
     atom   33 type  1   force =     0.03292593    0.03705204   -0.01832195
     atom   34 type  1   force =    -0.03292593   -0.03705204    0.01832195
     atom   35 type  1   force =    -0.04855097    0.00998867   -0.01832195
     atom   36 type  1   force =     0.04855097   -0.00998867    0.01832195

     Total force =     0.374599     Total SCF correction =     0.000261


     Computing stress (Cartesian axis) and pressure

          total   stress  (Ry/bohr**3)                   (kbar)     P=       91.30
   0.00055185  -0.00000000   0.00000000           81.18       -0.00        0.00
   0.00000000   0.00055185   0.00000000            0.00       81.18        0.00
   0.00000000   0.00000000   0.00075818            0.00        0.00      111.53


     Writing all to output data dir ./iceII/iceII.save/ :
     XML data file, charge density, pseudopotentials, collected wavefunctions

     init_run     :      0.87s CPU      0.93s WALL (       1 calls)
     electrons    :     10.06s CPU     10.26s WALL (       1 calls)
     forces       :      0.11s CPU      0.12s WALL (       1 calls)
     stress       :      0.76s CPU      0.77s WALL (       1 calls)

     Called by init_run:
     wfcinit      :      0.32s CPU      0.33s WALL (       1 calls)
     potinit      :      0.02s CPU      0.05s WALL (       1 calls)
     hinit0       :      0.39s CPU      0.39s WALL (       1 calls)

     Called by electrons:
     c_bands      :      8.52s CPU      8.63s WALL (      12 calls)
     sum_band     :      1.20s CPU      1.23s WALL (      12 calls)
     v_of_rho     :      0.23s CPU      0.25s WALL (      13 calls)
     newd         :      0.05s CPU      0.05s WALL (      13 calls)
     mix_rho      :      0.03s CPU      0.03s WALL (      12 calls)

     Called by c_bands:
     init_us_2    :      0.13s CPU      0.13s WALL (     108 calls)
     cegterg      :      8.09s CPU      8.16s WALL (      48 calls)

     Called by *egterg:
     cdiaghg      :      0.69s CPU      0.70s WALL (     182 calls)
     h_psi        :      6.40s CPU      6.48s WALL (     186 calls)
     s_psi        :      0.25s CPU      0.25s WALL (     186 calls)
     g_psi        :      0.02s CPU      0.02s WALL (     134 calls)

     Called by h_psi:
     h_psi:calbec :      0.44s CPU      0.44s WALL (     186 calls)
     vloc_psi     :      5.67s CPU      5.74s WALL (     186 calls)
     add_vuspsi   :      0.26s CPU      0.26s WALL (     186 calls)

     General routines
     calbec       :      0.59s CPU      0.60s WALL (     254 calls)
     fft          :      0.49s CPU      0.50s WALL (     151 calls)
     ffts         :      0.01s CPU      0.01s WALL (      12 calls)
     fftw         :      5.90s CPU      5.97s WALL (   16774 calls)

     Parallel routines

     PWSCF        :     12.07s CPU     12.69s WALL


   This run was terminated on:  18:25: 9  21Mar2026            

=------------------------------------------------------------------------------=
   JOB DONE.
=------------------------------------------------------------------------------=
