
     Program PWSCF v.7.3.1 starts on 23Mar2026 at 17:52:56 

     This program is part of the open-source Quantum ESPRESSO suite
     for quantum simulation of materials; please cite
         "P. Giannozzi et al., J. Phys.:Condens. Matter 21 395502 (2009);
         "P. Giannozzi et al., J. Phys.:Condens. Matter 29 465901 (2017);
         "P. Giannozzi et al., J. Chem. Phys. 152 154105 (2020);
          URL http://www.quantum-espresso.org", 
     in publications or presentations arising from this work. More details at
     http://www.quantum-espresso.org/quote

     Parallel version (MPI), running on   128 processors

     MPI processes distributed on     1 nodes
     243044 MiB available memory on the printing compute node when the environment starts

     Waiting for input...
     Reading input from standard input

     Current dimensions of program PWSCF are:
     Max number of different atomic species (ntypx) = 10
     Max number of k-points (npk) =  40000
     Max angular momentum in pseudopotentials (lmaxx) =  4

     K-points division:     npool     =       4
     R & G space division:  proc/nbgrp/npool/nimage =      32
     Subspace diagonalization in iterative solution of the eigenvalue problem:
     a serial algorithm will be used


     Parallelization info
     --------------------
     sticks:   dense  smooth     PW     G-vecs:    dense   smooth      PW
     Min         165     165     48                 6631     6631    1064
     Max         166     166     49                 6634     6634    1067
     Sum        5297    5297   1567               212231   212231   34123

     Using Slab Decomposition



     bravais-lattice index     =            5
     lattice parameter (alat)  =      14.1728  a.u.
     unit-cell volume          =    1839.3264 (a.u.)^3
     number of atoms/cell      =           36
     number of atomic types    =            2
     number of electrons       =        96.00
     number of Kohn-Sham states=           48
     kinetic-energy cutoff     =      90.0000  Ry
     charge density cutoff     =     360.0000  Ry
     scf convergence threshold =      1.0E-07
     mixing beta               =       0.7000
     number of iterations used =            8  plain     mixing
     Exchange-correlation=  SLA  PW   PBE  PBE
                           (   1   4   3   4   0   0   0)

     celldm(1)=  14.172794  celldm(2)=   0.000000  celldm(3)=   0.000000
     celldm(4)=  -0.392337  celldm(5)=   0.000000  celldm(6)=   0.000000

     crystal axes: (cart. coord. in units of alat)
               a(1) = (   0.834367  -0.481722   0.267909 )  
               a(2) = (   0.000000   0.963444   0.267909 )  
               a(3) = (  -0.834367  -0.481722   0.267909 )  

     reciprocal axes: (cart. coord. in units 2 pi/alat)
               b(1) = (  0.599257 -0.345981  1.244203 )  
               b(2) = (  0.000000  0.691962  1.244203 )  
               b(3) = ( -0.599257 -0.345981  1.244203 )  


     PseudoPot. # 1 for H  read from file:
     ./H.pbe-van_ak.UPF
     MD5 check sum: 077eb6d537518a38cb46c6de387227b7
     Pseudo is Ultrasoft, Zval =  1.0
     Generated by new atomic code, or converted to UPF format
     Using radial grid of  615 points,  1 beta functions with: 
                l(1) =   0
     Q(r) pseudized with  8 coefficients,  rinner =    0.800

     PseudoPot. # 2 for O  read from file:
     ./O.pbe-van_ak.UPF
     MD5 check sum: 78c19812648e8988a0fe644b0f25305e
     Pseudo is Ultrasoft, Zval =  6.0
     Generated by new atomic code, or converted to UPF format
     Using radial grid of  737 points,  4 beta functions with: 
                l(1) =   0
                l(2) =   0
                l(3) =   1
                l(4) =   1
     Q(r) pseudized with  8 coefficients,  rinner =    0.800   0.800   0.800


     atomic species   valence    mass     pseudopotential
     H                 1.00     1.00800     H ( 1.00)
     O                 6.00    16.00000     O ( 1.00)

      6 Sym. Ops., with inversion, found



   Cartesian axes

     site n.     atom                  positions (alat units)
         1        O      tau(   1) = (  -0.4910119  -0.5205722   0.3052394  )
         2        O      tau(   2) = (   0.4910119   0.5205722   0.4984877  )
         3        O      tau(   3) = (   0.6963347  -0.1649427   0.3052394  )
         4        O      tau(   4) = (  -0.6963347   0.1649427   0.4984877  )
         5        O      tau(   5) = (  -0.2053228   0.6855149   0.3052394  )
         6        O      tau(   6) = (   0.2053228  -0.6855149   0.4984877  )
         7        O      tau(   7) = (   0.1229870   0.3303028   0.4196306  )
         8        O      tau(   8) = (  -0.1229870  -0.3303028   0.3840965  )
         9        O      tau(   9) = (  -0.3475441  -0.0586415   0.4196306  )
        10        O      tau(  10) = (   0.3475441   0.0586415   0.3840965  )
        11        O      tau(  11) = (   0.2245571  -0.2716613   0.4196306  )
        12        O      tau(  12) = (  -0.2245571   0.2716612   0.3840965  )
        13        H      tau(  13) = (  -0.5446961  -0.4126715   0.2597134  )
        14        H      tau(  14) = (   0.5446961   0.4126715   0.5440137  )
        15        H      tau(  15) = (   0.6297321  -0.2653849   0.2597134  )
        16        H      tau(  16) = (  -0.6297321   0.2653849   0.5440137  )
        17        H      tau(  17) = (  -0.0850360   0.6780564   0.2597134  )
        18        H      tau(  18) = (   0.0850360  -0.6780564   0.5440137  )
        19        H      tau(  19) = (  -0.4726389  -0.4926041   0.4288765  )
        20        H      tau(  20) = (   0.4726389   0.4926042   0.3748506  )
        21        H      tau(  21) = (   0.6629272  -0.1630152   0.4288765  )
        22        H      tau(  22) = (  -0.6629272   0.1630152   0.3748506  )
        23        H      tau(  23) = (  -0.1902883   0.6556194   0.4288765  )
        24        H      tau(  24) = (   0.1902883  -0.6556194   0.3748506  )
        25        H      tau(  25) = (   0.2676988  -0.1507235   0.4151121  )
        26        H      tau(  26) = (  -0.2676988   0.1507234   0.3886151  )
        27        H      tau(  27) = (  -0.0033191   0.3071957   0.4151121  )
        28        H      tau(  28) = (   0.0033191  -0.3071957   0.3886151  )
        29        H      tau(  29) = (  -0.2643797  -0.1564722   0.4151121  )
        30        H      tau(  30) = (   0.2643797   0.1564723   0.3886151  )
        31        H      tau(  31) = (   0.3102941  -0.3416444   0.3555952  )
        32        H      tau(  32) = (  -0.3102941   0.3416444   0.4481319  )
        33        H      tau(  33) = (   0.1407257   0.4395448   0.3555952  )
        34        H      tau(  34) = (  -0.1407257  -0.4395448   0.4481319  )
        35        H      tau(  35) = (  -0.4510198  -0.0979003   0.3555952  )
        36        H      tau(  36) = (   0.4510198   0.0979003   0.4481319  )

     number of k points=    14
                       cart. coord. in units 2pi/alat
        k(    1) = (   0.0000000   0.0000000   0.0000000), wk =   0.0312500
        k(    2) = (  -0.1498141  -0.0864952   0.3110508), wk =   0.1875000
        k(    3) = (   0.2996283   0.1729905  -0.6221017), wk =   0.0937500
        k(    4) = (  -0.1498141   0.0864952   0.6221017), wk =   0.1875000
        k(    5) = (   0.2996283   0.3459809  -0.3110508), wk =   0.1875000
        k(    6) = (   0.1498141   0.2594857   0.0000000), wk =   0.1875000
        k(    7) = (   0.2996283  -0.1729905  -1.2442034), wk =   0.0937500
        k(    8) = (   0.0000000   0.0000000   0.9331525), wk =   0.0625000
        k(    9) = (   0.4494424   0.2594857   0.0000000), wk =   0.1875000
        k(   10) = (   0.2996283   0.1729905   0.3110508), wk =   0.1875000
        k(   11) = (   0.4494424  -0.2594857  -0.9331525), wk =   0.1875000
        k(   12) = (   0.2996283  -0.3459809  -0.6221017), wk =   0.1875000
        k(   13) = (   0.0000000   0.0000000  -1.8663050), wk =   0.0312500
        k(   14) = (   0.2996283  -0.3459809   0.3110508), wk =   0.1875000

     Dense  grid:   212231 G-vectors     FFT dimensions: (  90,  90,  90)

     Estimated max dynamical RAM per process >      14.20 MB

     Estimated total dynamical RAM >       1.62 GB

     Initial potential from superposition of free atoms

     starting charge      95.9998, renormalised to      96.0000
     Starting wfcs are   72 randomized atomic wfcs

     total cpu time spent up to now is        1.1 secs

     per-process dynamical memory:    18.8 Mb

     Self-consistent Calculation

     iteration #  1     ecut=    90.00 Ry     beta= 0.70
     Davidson diagonalization with overlap
     ethr =  1.00E-02,  avg # of iterations =  2.0

     total cpu time spent up to now is        1.9 secs

     total energy              =    -412.25512625 Ry
     estimated scf accuracy    <       4.11934462 Ry

     iteration #  2     ecut=    90.00 Ry     beta= 0.70
     Davidson diagonalization with overlap
     ethr =  4.29E-03,  avg # of iterations =  3.0

     total cpu time spent up to now is        2.9 secs

     total energy              =    -413.57505244 Ry
     estimated scf accuracy    <       2.06138712 Ry

     iteration #  3     ecut=    90.00 Ry     beta= 0.70
     Davidson diagonalization with overlap
     ethr =  2.15E-03,  avg # of iterations =  2.0

     total cpu time spent up to now is        3.6 secs

     total energy              =    -413.83619969 Ry
     estimated scf accuracy    <       0.08062232 Ry

     iteration #  4     ecut=    90.00 Ry     beta= 0.70
     Davidson diagonalization with overlap
     ethr =  8.40E-05,  avg # of iterations =  4.0

     total cpu time spent up to now is        4.7 secs

     total energy              =    -413.89406557 Ry
     estimated scf accuracy    <       0.10507485 Ry

     iteration #  5     ecut=    90.00 Ry     beta= 0.70
     Davidson diagonalization with overlap
     ethr =  8.40E-05,  avg # of iterations =  2.0

     total cpu time spent up to now is        5.4 secs

     total energy              =    -413.89990790 Ry
     estimated scf accuracy    <       0.01373241 Ry

     iteration #  6     ecut=    90.00 Ry     beta= 0.70
     Davidson diagonalization with overlap
     ethr =  1.43E-05,  avg # of iterations =  2.0

     total cpu time spent up to now is        6.2 secs

     total energy              =    -413.90033439 Ry
     estimated scf accuracy    <       0.00288888 Ry

     iteration #  7     ecut=    90.00 Ry     beta= 0.70
     Davidson diagonalization with overlap
     ethr =  3.01E-06,  avg # of iterations =  3.0

     total cpu time spent up to now is        7.1 secs

     total energy              =    -413.90181476 Ry
     estimated scf accuracy    <       0.00037395 Ry

     iteration #  8     ecut=    90.00 Ry     beta= 0.70
     Davidson diagonalization with overlap
     ethr =  3.90E-07,  avg # of iterations =  1.9

     total cpu time spent up to now is        7.9 secs

     total energy              =    -413.90171122 Ry
     estimated scf accuracy    <       0.00031329 Ry

     iteration #  9     ecut=    90.00 Ry     beta= 0.70
     Davidson diagonalization with overlap
     ethr =  3.26E-07,  avg # of iterations =  2.0

     total cpu time spent up to now is        8.5 secs

     total energy              =    -413.90172718 Ry
     estimated scf accuracy    <       0.00004011 Ry

     iteration # 10     ecut=    90.00 Ry     beta= 0.70
     Davidson diagonalization with overlap
     ethr =  4.18E-08,  avg # of iterations =  2.0

     total cpu time spent up to now is        9.3 secs

     total energy              =    -413.90173814 Ry
     estimated scf accuracy    <       0.00000233 Ry

     iteration # 11     ecut=    90.00 Ry     beta= 0.70
     Davidson diagonalization with overlap
     ethr =  2.43E-09,  avg # of iterations =  3.4

     total cpu time spent up to now is       10.2 secs

     total energy              =    -413.90173906 Ry
     estimated scf accuracy    <       0.00000010 Ry

     iteration # 12     ecut=    90.00 Ry     beta= 0.70
     Davidson diagonalization with overlap
     ethr =  1.07E-10,  avg # of iterations =  2.8

     total cpu time spent up to now is       11.0 secs

     total energy              =    -413.90173901 Ry
     estimated scf accuracy    <       0.00000013 Ry

     iteration # 13     ecut=    90.00 Ry     beta= 0.70
     Davidson diagonalization with overlap
     ethr =  1.07E-10,  avg # of iterations =  2.3

     total cpu time spent up to now is       11.9 secs

     End of self-consistent calculation

          k = 0.0000 0.0000 0.0000 ( 26627 PWs)   bands (ev):

   -20.8300 -20.2650 -20.2650 -20.0106 -20.0106 -19.9896 -19.9435 -19.9435
   -19.9112 -19.5666 -19.5666 -19.1769  -8.2619  -8.1250  -8.1181  -8.1181
    -8.0029  -8.0029  -7.6617  -7.6617  -7.6587  -7.6547  -7.6547  -7.5939
    -6.5009  -5.2519  -5.2519  -4.6381  -4.6381  -4.3613  -4.3613  -4.2814
    -4.0567  -3.3405  -3.3405  -2.5714  -2.3244  -2.3244  -2.2193  -2.1017
    -2.1017  -2.0381  -1.9540  -1.9540  -1.9482  -1.8170  -1.7911  -1.7911

          k =-0.1498-0.0865 0.3111 ( 26533 PWs)   bands (ev):

   -20.7420 -20.3064 -20.2501 -20.1827 -20.1384 -20.0536 -19.8921 -19.8245
   -19.7489 -19.5783 -19.5266 -19.2474  -8.2206  -8.1589  -8.1224  -8.0959
    -8.0000  -7.9561  -7.7530  -7.7066  -7.6693  -7.6044  -7.5582  -7.5259
    -6.2858  -5.4372  -5.2773  -4.9512  -4.7462  -4.4656  -4.1750  -4.0788
    -3.8757  -3.3444  -3.2673  -2.7186  -2.4218  -2.3556  -2.2457  -2.1889
    -2.1594  -2.0863  -1.9946  -1.9398  -1.8941  -1.8600  -1.7974  -1.7821

          k = 0.2996 0.1730-0.6221 ( 26532 PWs)   bands (ev):

   -20.5254 -20.4966 -20.2805 -20.2540 -20.1580 -20.1279 -19.8324 -19.7881
   -19.6325 -19.5602 -19.4520 -19.3949  -8.1779  -8.1637  -8.1174  -8.0962
    -8.0105  -7.9332  -7.7592  -7.7260  -7.6774  -7.6173  -7.4779  -7.4590
    -5.8772  -5.7347  -5.3038  -5.2659  -4.7262  -4.6726  -4.0202  -3.9615
    -3.4701  -3.4559  -3.2450  -2.9711  -2.4992  -2.3836  -2.2695  -2.2665
    -2.1902  -2.0709  -2.0631  -1.9738  -1.9426  -1.8504  -1.7640  -1.7634

          k =-0.1498 0.0865 0.6221 ( 26546 PWs)   bands (ev):

   -20.5668 -20.3836 -20.3691 -20.2239 -20.1996 -20.1151 -19.8310 -19.7277
   -19.6772 -19.5346 -19.5060 -19.3680  -8.1744  -8.1524  -8.1339  -8.1092
    -7.9955  -7.9207  -7.7561  -7.7322  -7.7262  -7.5434  -7.5044  -7.4685
    -5.9121  -5.5924  -5.5376  -5.0445  -4.8677  -4.6572  -4.0473  -3.7857
    -3.6909  -3.3367  -3.2369  -3.0046  -2.4901  -2.4088  -2.2729  -2.2230
    -2.1570  -2.1262  -2.0646  -1.9578  -1.9399  -1.8598  -1.7874  -1.7390

          k = 0.2996 0.3460-0.3111 ( 26515 PWs)   bands (ev):

   -20.6215 -20.4207 -20.3309 -20.2548 -20.1500 -20.0676 -19.8514 -19.7287
   -19.6298 -19.6010 -19.4803 -19.3530  -8.1864  -8.1775  -8.0993  -8.0787
    -8.0069  -7.9463  -7.8383  -7.8044  -7.7314  -7.5488  -7.5297  -7.4697
    -5.9652  -5.5807  -5.3501  -5.0779  -5.0531  -4.4383  -3.9893  -3.8446
    -3.7036  -3.3936  -3.2322  -2.9219  -2.4089  -2.3536  -2.2834  -2.2037
    -2.1548  -2.0665  -2.0336  -2.0033  -1.9140  -1.9029  -1.7629  -1.7024

          k = 0.1498 0.2595 0.0000 ( 26528 PWs)   bands (ev):

   -20.7642 -20.3587 -20.2895 -20.1486 -20.0851 -19.9998 -19.9096 -19.8301
   -19.7443 -19.5778 -19.5333 -19.2371  -8.2344  -8.1539  -8.1190  -8.0818
    -7.9984  -7.9840  -7.8292  -7.7641  -7.6896  -7.6029  -7.5795  -7.5366
    -6.2922  -5.3203  -5.2392  -4.9763  -4.9384  -4.2901  -4.1363  -3.9944
    -3.9149  -3.3738  -3.3332  -2.6539  -2.3242  -2.2990  -2.2686  -2.1671
    -2.1138  -2.0720  -1.9976  -1.9761  -1.9172  -1.8564  -1.7530  -1.7349

          k = 0.2996-0.1730-1.2442 ( 26506 PWs)   bands (ev):

   -20.6025 -20.5645 -20.3081 -20.2099 -20.0801 -20.0344 -19.8242 -19.8237
   -19.6288 -19.6181 -19.4126 -19.3701  -8.1988  -8.1643  -8.1004  -8.0733
    -7.9799  -7.9762  -7.9295  -7.8334  -7.7176  -7.5955  -7.5602  -7.4995
    -5.8000  -5.7733  -5.2849  -5.2078  -4.8391  -4.4306  -3.9446  -3.8747
    -3.6609  -3.5155  -3.1369  -2.9121  -2.3312  -2.2925  -2.2588  -2.2088
    -2.1316  -2.0657  -2.0498  -1.9718  -1.9494  -1.8760  -1.7103  -1.7019

          k = 0.0000 0.0000 0.9332 ( 26489 PWs)   bands (ev):

   -20.4814 -20.4814 -20.4192 -20.3423 -20.0985 -20.0985 -19.7532 -19.7532
   -19.5877 -19.4987 -19.4987 -19.4770  -8.1726  -8.1726  -8.1162  -8.0639
    -7.9968  -7.9968  -7.8737  -7.7872  -7.7872  -7.4901  -7.4901  -7.4507
    -5.6735  -5.6735  -5.6005  -5.2431  -4.7717  -4.7717  -3.7317  -3.7317
    -3.6128  -3.3103  -3.3103  -3.1794  -2.3571  -2.3571  -2.2412  -2.2069
    -2.1227  -2.1227  -2.0341  -1.9854  -1.9854  -1.8395  -1.8395  -1.6707

          k = 0.4494 0.2595 0.0000 ( 26513 PWs)   bands (ev):

   -20.6420 -20.4347 -20.4343 -20.2118 -20.0300 -20.0010 -19.8786 -19.8391
   -19.6351 -19.5406 -19.4878 -19.3419  -8.1939  -8.1565  -8.1285  -8.0404
    -8.0167  -7.9528  -7.9363  -7.8099  -7.7590  -7.5737  -7.5379  -7.5214
    -5.9434  -5.4704  -5.4183  -5.2668  -4.7956  -4.4299  -4.0180  -3.9018
    -3.5801  -3.3942  -3.2867  -2.8748  -2.3118  -2.2946  -2.2753  -2.2036
    -2.1490  -2.0819  -2.0351  -2.0005  -1.9038  -1.8473  -1.7714  -1.6749

          k = 0.2996 0.1730 0.3111 ( 26532 PWs)   bands (ev):

   -20.6802 -20.3635 -20.2704 -20.2499 -20.1447 -20.0679 -19.8528 -19.8007
   -19.7041 -19.5700 -19.4920 -19.2935  -8.1999  -8.1616  -8.1249  -8.0551
    -8.0127  -7.9227  -7.8380  -7.7065  -7.6755  -7.6515  -7.5857  -7.5031
    -6.1013  -5.4234  -5.3575  -5.0086  -4.9484  -4.4407  -4.0822  -3.9090
    -3.8626  -3.3338  -3.2522  -2.7727  -2.4421  -2.3420  -2.2908  -2.2503
    -2.1751  -2.0808  -2.0077  -1.9771  -1.8960  -1.8586  -1.7737  -1.7199

          k = 0.4494-0.2595-0.9332 ( 26504 PWs)   bands (ev):

   -20.5181 -20.5159 -20.3463 -20.2834 -20.1321 -20.0329 -19.8942 -19.7719
   -19.6108 -19.5439 -19.4833 -19.3557  -8.1766  -8.1507  -8.1230  -8.0362
    -8.0002  -7.9202  -7.8708  -7.7820  -7.7007  -7.6527  -7.5678  -7.5165
    -5.7747  -5.5963  -5.4050  -5.2045  -4.9009  -4.4360  -4.1681  -3.8518
    -3.5623  -3.3246  -3.2806  -2.8826  -2.4387  -2.3618  -2.3191  -2.2570
    -2.2227  -2.1157  -1.9995  -1.9596  -1.8998  -1.8657  -1.7707  -1.6697

          k = 0.2996-0.3460-0.6221 ( 26532 PWs)   bands (ev):

   -20.4806 -20.4500 -20.3239 -20.3193 -20.1644 -20.1534 -19.8057 -19.7845
   -19.5987 -19.5759 -19.4710 -19.3739  -8.1817  -8.1276  -8.0985  -8.0753
    -8.0398  -7.8785  -7.7966  -7.7596  -7.6718  -7.6283  -7.5231  -7.5109
    -5.7182  -5.6788  -5.3532  -5.2883  -4.7888  -4.7394  -3.9654  -3.8781
    -3.5250  -3.4965  -3.1796  -2.9555  -2.5156  -2.3835  -2.3298  -2.3110
    -2.2061  -2.1292  -1.9927  -1.9633  -1.9464  -1.8406  -1.8161  -1.6699

          k = 0.0000 0.0000-1.8663 ( 26490 PWs)   bands (ev):

   -20.4221 -20.3905 -20.3237 -20.3237 -20.2580 -20.2580 -19.7071 -19.7071
   -19.6455 -19.6455 -19.4688 -19.3502  -8.1820  -8.0746  -8.0746  -8.0612
    -8.0612  -7.8587  -7.8324  -7.7737  -7.6400  -7.6400  -7.5819  -7.5819
    -5.7137  -5.5414  -5.1546  -5.1546  -5.0317  -5.0317  -3.7143  -3.7143
    -3.6550  -3.6550  -3.1318  -2.9354  -2.4764  -2.3763  -2.3763  -2.3615
    -2.3615  -2.0846  -1.9607  -1.8970  -1.8970  -1.8811  -1.8811  -1.6173

          k = 0.2996-0.3460 0.3111 ( 26515 PWs)   bands (ev):

   -20.6211 -20.4273 -20.3089 -20.2733 -20.1473 -20.0687 -19.8463 -19.7179
   -19.6796 -19.5464 -19.5010 -19.3520  -8.1958  -8.1592  -8.1123  -8.0525
    -8.0285  -7.9511  -7.8557  -7.7855  -7.7282  -7.5480  -7.5228  -7.4780
    -5.9703  -5.5516  -5.4117  -5.0485  -4.9965  -4.5095  -4.0803  -3.7191
    -3.6086  -3.4472  -3.3209  -2.8857  -2.4217  -2.3195  -2.2868  -2.2065
    -2.1612  -2.0759  -2.0306  -2.0102  -1.9485  -1.8565  -1.7689  -1.7043

     highest occupied level (ev):    -1.6173

!    total energy              =    -413.90173904 Ry
     estimated scf accuracy    <          7.5E-10 Ry

     The total energy is the sum of the following terms:
     one-electron contribution =    -277.00318500 Ry
     hartree contribution      =     174.84360174 Ry
     xc contribution           =    -102.52918407 Ry
     ewald contribution        =    -209.21297172 Ry

     convergence has been achieved in  13 iterations

     Forces acting on atoms (cartesian axes, Ry/au):

     atom    1 type  2   force =     0.01793164   -0.06237962   -0.03740093
     atom    2 type  2   force =    -0.01793164    0.06237962    0.03740093
     atom    3 type  2   force =     0.04505651    0.04671907   -0.03740093
     atom    4 type  2   force =    -0.04505651   -0.04671907    0.03740093
     atom    5 type  2   force =    -0.06298816    0.01566055   -0.03740093
     atom    6 type  2   force =     0.06298816   -0.01566055    0.03740093
     atom    7 type  2   force =     0.04984181   -0.03838746    0.03098666
     atom    8 type  2   force =    -0.04984181    0.03838746   -0.03098666
     atom    9 type  2   force =     0.00832361    0.06235801    0.03098666
     atom   10 type  2   force =    -0.00832361   -0.06235801   -0.03098666
     atom   11 type  2   force =    -0.05816543   -0.02397054    0.03098666
     atom   12 type  2   force =     0.05816543    0.02397054   -0.03098666
     atom   13 type  1   force =    -0.02571826    0.05042580   -0.02506057
     atom   14 type  1   force =     0.02571826   -0.05042580    0.02506057
     atom   15 type  1   force =    -0.03081089   -0.04748557   -0.02506057
     atom   16 type  1   force =     0.03081089    0.04748557    0.02506057
     atom   17 type  1   force =     0.05652915   -0.00294023   -0.02506057
     atom   18 type  1   force =    -0.05652915    0.00294023    0.02506057
     atom   19 type  1   force =     0.01207609    0.01066198    0.06315812
     atom   20 type  1   force =    -0.01207609   -0.01066198   -0.06315812
     atom   21 type  1   force =    -0.01527159    0.00512721    0.06315812
     atom   22 type  1   force =     0.01527159   -0.00512721   -0.06315812
     atom   23 type  1   force =     0.00319550   -0.01578919    0.06315812
     atom   24 type  1   force =    -0.00319550    0.01578919   -0.06315812
     atom   25 type  1   force =     0.01881971    0.06115801   -0.00026639
     atom   26 type  1   force =    -0.01881971   -0.06115801    0.00026639
     atom   27 type  1   force =    -0.06237424   -0.01428065   -0.00026639
     atom   28 type  1   force =     0.06237424    0.01428065    0.00026639
     atom   29 type  1   force =     0.04355453   -0.04687735   -0.00026639
     atom   30 type  1   force =    -0.04355453    0.04687735    0.00026639
     atom   31 type  1   force =     0.04198416   -0.03892391   -0.03252039
     atom   32 type  1   force =    -0.04198416    0.03892391    0.03252039
     atom   33 type  1   force =     0.01271702    0.05582130   -0.03252039
     atom   34 type  1   force =    -0.01271702   -0.05582130    0.03252039
     atom   35 type  1   force =    -0.05470117   -0.01689739   -0.03252039
     atom   36 type  1   force =     0.05470117    0.01689739    0.03252039

     Total force =     0.402791     Total SCF correction =     0.000027


     Computing stress (Cartesian axis) and pressure

          total   stress  (Ry/bohr**3)                   (kbar)     P=       97.50
   0.00066375  -0.00000000  -0.00000000           97.64       -0.00       -0.00
   0.00000000   0.00066375   0.00000000            0.00       97.64        0.00
  -0.00000000   0.00000000   0.00066083           -0.00        0.00       97.21


     Writing all to output data dir ./iceII/iceII.save/ :
     XML data file, charge density, pseudopotentials, collected wavefunctions

     init_run     :      0.86s CPU      0.93s WALL (       1 calls)
     electrons    :     10.59s CPU     10.76s WALL (       1 calls)
     forces       :      0.12s CPU      0.13s WALL (       1 calls)
     stress       :      0.76s CPU      0.79s WALL (       1 calls)

     Called by init_run:
     wfcinit      :      0.32s CPU      0.34s WALL (       1 calls)
     potinit      :      0.03s CPU      0.05s WALL (       1 calls)
     hinit0       :      0.38s CPU      0.39s WALL (       1 calls)

     Called by electrons:
     c_bands      :      8.92s CPU      9.01s WALL (      13 calls)
     sum_band     :      1.29s CPU      1.31s WALL (      13 calls)
     v_of_rho     :      0.25s CPU      0.28s WALL (      14 calls)
     newd         :      0.05s CPU      0.06s WALL (      14 calls)
     mix_rho      :      0.04s CPU      0.04s WALL (      13 calls)

     Called by c_bands:
     init_us_2    :      0.14s CPU      0.15s WALL (     116 calls)
     cegterg      :      8.51s CPU      8.58s WALL (      52 calls)

     Called by *egterg:
     cdiaghg      :      0.69s CPU      0.69s WALL (     182 calls)
     h_psi        :      6.77s CPU      6.84s WALL (     186 calls)
     s_psi        :      0.26s CPU      0.27s WALL (     186 calls)
     g_psi        :      0.02s CPU      0.02s WALL (     130 calls)

     Called by h_psi:
     h_psi:calbec :      0.45s CPU      0.46s WALL (     186 calls)
     vloc_psi     :      6.00s CPU      6.06s WALL (     186 calls)
     add_vuspsi   :      0.28s CPU      0.28s WALL (     186 calls)

     General routines
     calbec       :      0.61s CPU      0.62s WALL (     258 calls)
     fft          :      0.50s CPU      0.51s WALL (     162 calls)
     ffts         :      0.01s CPU      0.01s WALL (      13 calls)
     fftw         :      6.30s CPU      6.36s WALL (   17634 calls)

     Parallel routines

     PWSCF        :     12.64s CPU     13.22s WALL


   This run was terminated on:  17:53: 9  23Mar2026            

=------------------------------------------------------------------------------=
   JOB DONE.
=------------------------------------------------------------------------------=
