
     Program PWSCF v.7.3.1 starts on 21Mar2026 at 18:34:35 

     This program is part of the open-source Quantum ESPRESSO suite
     for quantum simulation of materials; please cite
         "P. Giannozzi et al., J. Phys.:Condens. Matter 21 395502 (2009);
         "P. Giannozzi et al., J. Phys.:Condens. Matter 29 465901 (2017);
         "P. Giannozzi et al., J. Chem. Phys. 152 154105 (2020);
          URL http://www.quantum-espresso.org", 
     in publications or presentations arising from this work. More details at
     http://www.quantum-espresso.org/quote

     Parallel version (MPI), running on   128 processors

     MPI processes distributed on     1 nodes
     242996 MiB available memory on the printing compute node when the environment starts

     Waiting for input...
     Reading input from standard input

     Current dimensions of program PWSCF are:
     Max number of different atomic species (ntypx) = 10
     Max number of k-points (npk) =  40000
     Max angular momentum in pseudopotentials (lmaxx) =  4

     K-points division:     npool     =       4
     R & G space division:  proc/nbgrp/npool/nimage =      32
     Subspace diagonalization in iterative solution of the eigenvalue problem:
     a serial algorithm will be used


     Parallelization info
     --------------------
     sticks:   dense  smooth     PW     G-vecs:    dense   smooth      PW
     Min         166     166     49                 6707     6707    1077
     Max         167     167     50                 6711     6711    1080
     Sum        5317    5317   1579               214667   214667   34507

     Using Slab Decomposition



     bravais-lattice index     =            5
     lattice parameter (alat)  =      14.2316  a.u.
     unit-cell volume          =    1862.3177 (a.u.)^3
     number of atoms/cell      =           36
     number of atomic types    =            2
     number of electrons       =        96.00
     number of Kohn-Sham states=           48
     kinetic-energy cutoff     =      90.0000  Ry
     charge density cutoff     =     360.0000  Ry
     scf convergence threshold =      1.0E-07
     mixing beta               =       0.7000
     number of iterations used =            8  plain     mixing
     Exchange-correlation=  SLA  PW   PBE  PBE
                           (   1   4   3   4   0   0   0)

     celldm(1)=  14.231602  celldm(2)=   0.000000  celldm(3)=   0.000000
     celldm(4)=  -0.392337  celldm(5)=   0.000000  celldm(6)=   0.000000

     crystal axes: (cart. coord. in units of alat)
               a(1) = (   0.834367  -0.481722   0.267909 )  
               a(2) = (   0.000000   0.963444   0.267909 )  
               a(3) = (  -0.834367  -0.481722   0.267909 )  

     reciprocal axes: (cart. coord. in units 2 pi/alat)
               b(1) = (  0.599257 -0.345981  1.244203 )  
               b(2) = (  0.000000  0.691962  1.244203 )  
               b(3) = ( -0.599257 -0.345981  1.244203 )  


     PseudoPot. # 1 for H  read from file:
     ./H.pbe-van_ak.UPF
     MD5 check sum: 077eb6d537518a38cb46c6de387227b7
     Pseudo is Ultrasoft, Zval =  1.0
     Generated by new atomic code, or converted to UPF format
     Using radial grid of  615 points,  1 beta functions with: 
                l(1) =   0
     Q(r) pseudized with  8 coefficients,  rinner =    0.800

     PseudoPot. # 2 for O  read from file:
     ./O.pbe-van_ak.UPF
     MD5 check sum: 78c19812648e8988a0fe644b0f25305e
     Pseudo is Ultrasoft, Zval =  6.0
     Generated by new atomic code, or converted to UPF format
     Using radial grid of  737 points,  4 beta functions with: 
                l(1) =   0
                l(2) =   0
                l(3) =   1
                l(4) =   1
     Q(r) pseudized with  8 coefficients,  rinner =    0.800   0.800   0.800


     atomic species   valence    mass     pseudopotential
     H                 1.00     1.00800     H ( 1.00)
     O                 6.00    16.00000     O ( 1.00)

      6 Sym. Ops., with inversion, found



   Cartesian axes

     site n.     atom                  positions (alat units)
         1        O      tau(   1) = (  -0.4847673  -0.5197781   0.3083633  )
         2        O      tau(   2) = (   0.4847673   0.5197782   0.4953638  )
         3        O      tau(   3) = (   0.6925247  -0.1599317   0.3083633  )
         4        O      tau(   4) = (  -0.6925248   0.1599317   0.4953638  )
         5        O      tau(   5) = (  -0.2077574   0.6797099   0.3083633  )
         6        O      tau(   6) = (   0.2077574  -0.6797099   0.4953638  )
         7        O      tau(   7) = (   0.1218176   0.3323883   0.4179381  )
         8        O      tau(   8) = (  -0.1218176  -0.3323883   0.3857890  )
         9        O      tau(   9) = (  -0.3487655  -0.0606970   0.4179381  )
        10        O      tau(  10) = (   0.3487655   0.0606970   0.3857890  )
        11        O      tau(  11) = (   0.2269479  -0.2716913   0.4179381  )
        12        O      tau(  12) = (  -0.2269479   0.2716912   0.3857890  )
        13        H      tau(  13) = (  -0.5381668  -0.4032014   0.2796970  )
        14        H      tau(  14) = (   0.5381668   0.4032014   0.5240301  )
        15        H      tau(  15) = (   0.6182661  -0.2644654   0.2796970  )
        16        H      tau(  16) = (  -0.6182661   0.2644654   0.5240301  )
        17        H      tau(  17) = (  -0.0800993   0.6676668   0.2796970  )
        18        H      tau(  18) = (   0.0800993  -0.6676668   0.5240301  )
        19        H      tau(  19) = (  -0.4872704  -0.4817221   0.4326731  )
        20        H      tau(  20) = (   0.4872704   0.4817221   0.3710540  )
        21        H      tau(  21) = (   0.6608188  -0.1811275   0.4326731  )
        22        H      tau(  22) = (  -0.6608188   0.1811275   0.3710540  )
        23        H      tau(  23) = (  -0.1735484   0.6628496   0.4326731  )
        24        H      tau(  24) = (   0.1735484  -0.6628496   0.3710540  )
        25        H      tau(  25) = (   0.2703349  -0.1502973   0.4058822  )
        26        H      tau(  26) = (  -0.2703350   0.1502973   0.3978449  )
        27        H      tau(  27) = (  -0.0050062   0.3092656   0.4058822  )
        28        H      tau(  28) = (   0.0050062  -0.3092656   0.3978449  )
        29        H      tau(  29) = (  -0.2653287  -0.1589683   0.4058822  )
        30        H      tau(  30) = (   0.2653287   0.1589683   0.3978449  )
        31        H      tau(  31) = (   0.3178939  -0.3347969   0.3493534  )
        32        H      tau(  32) = (  -0.3178939   0.3347969   0.4543737  )
        33        H      tau(  33) = (   0.1309957   0.4427026   0.3493534  )
        34        H      tau(  34) = (  -0.1309956  -0.4427026   0.4543737  )
        35        H      tau(  35) = (  -0.4488895  -0.1079057   0.3493534  )
        36        H      tau(  36) = (   0.4488895   0.1079057   0.4543737  )

     number of k points=    14
                       cart. coord. in units 2pi/alat
        k(    1) = (   0.0000000   0.0000000   0.0000000), wk =   0.0312500
        k(    2) = (  -0.1498141  -0.0864952   0.3110508), wk =   0.1875000
        k(    3) = (   0.2996283   0.1729905  -0.6221017), wk =   0.0937500
        k(    4) = (  -0.1498141   0.0864952   0.6221017), wk =   0.1875000
        k(    5) = (   0.2996283   0.3459809  -0.3110508), wk =   0.1875000
        k(    6) = (   0.1498141   0.2594857   0.0000000), wk =   0.1875000
        k(    7) = (   0.2996283  -0.1729905  -1.2442034), wk =   0.0937500
        k(    8) = (   0.0000000   0.0000000   0.9331525), wk =   0.0625000
        k(    9) = (   0.4494424   0.2594857   0.0000000), wk =   0.1875000
        k(   10) = (   0.2996283   0.1729905   0.3110508), wk =   0.1875000
        k(   11) = (   0.4494424  -0.2594857  -0.9331525), wk =   0.1875000
        k(   12) = (   0.2996283  -0.3459809  -0.6221017), wk =   0.1875000
        k(   13) = (   0.0000000   0.0000000  -1.8663050), wk =   0.0312500
        k(   14) = (   0.2996283  -0.3459809   0.3110508), wk =   0.1875000

     Dense  grid:   214667 G-vectors     FFT dimensions: (  90,  90,  90)

     Estimated max dynamical RAM per process >      14.34 MB

     Estimated total dynamical RAM >       1.64 GB

     Initial potential from superposition of free atoms

     starting charge      95.9998, renormalised to      96.0000
     Starting wfcs are   72 randomized atomic wfcs

     total cpu time spent up to now is        1.1 secs

     per-process dynamical memory:    19.0 Mb

     Self-consistent Calculation

     iteration #  1     ecut=    90.00 Ry     beta= 0.70
     Davidson diagonalization with overlap
     ethr =  1.00E-02,  avg # of iterations =  2.0

     total cpu time spent up to now is        1.9 secs

     total energy              =    -412.24553286 Ry
     estimated scf accuracy    <       3.89388773 Ry

     iteration #  2     ecut=    90.00 Ry     beta= 0.70
     Davidson diagonalization with overlap
     ethr =  4.06E-03,  avg # of iterations =  3.0

     total cpu time spent up to now is        2.9 secs

     total energy              =    -413.49706432 Ry
     estimated scf accuracy    <       2.06242170 Ry

     iteration #  3     ecut=    90.00 Ry     beta= 0.70
     Davidson diagonalization with overlap
     ethr =  2.15E-03,  avg # of iterations =  2.0

     total cpu time spent up to now is        3.6 secs

     total energy              =    -413.75421163 Ry
     estimated scf accuracy    <       0.08571959 Ry

     iteration #  4     ecut=    90.00 Ry     beta= 0.70
     Davidson diagonalization with overlap
     ethr =  8.93E-05,  avg # of iterations =  4.3

     total cpu time spent up to now is        4.8 secs

     total energy              =    -413.81870851 Ry
     estimated scf accuracy    <       0.10291790 Ry

     iteration #  5     ecut=    90.00 Ry     beta= 0.70
     Davidson diagonalization with overlap
     ethr =  8.93E-05,  avg # of iterations =  2.0

     total cpu time spent up to now is        5.5 secs

     total energy              =    -413.82213953 Ry
     estimated scf accuracy    <       0.01738952 Ry

     iteration #  6     ecut=    90.00 Ry     beta= 0.70
     Davidson diagonalization with overlap
     ethr =  1.81E-05,  avg # of iterations =  2.0

     total cpu time spent up to now is        6.2 secs

     total energy              =    -413.82211980 Ry
     estimated scf accuracy    <       0.00491434 Ry

     iteration #  7     ecut=    90.00 Ry     beta= 0.70
     Davidson diagonalization with overlap
     ethr =  5.12E-06,  avg # of iterations =  2.8

     total cpu time spent up to now is        7.1 secs

     total energy              =    -413.82315232 Ry
     estimated scf accuracy    <       0.00011643 Ry

     iteration #  8     ecut=    90.00 Ry     beta= 0.70
     Davidson diagonalization with overlap
     ethr =  1.21E-07,  avg # of iterations =  5.3

     total cpu time spent up to now is        8.3 secs

     total energy              =    -413.82326027 Ry
     estimated scf accuracy    <       0.00034848 Ry

     iteration #  9     ecut=    90.00 Ry     beta= 0.70
     Davidson diagonalization with overlap
     ethr =  1.21E-07,  avg # of iterations =  2.7

     total cpu time spent up to now is        9.2 secs

     total energy              =    -413.82325931 Ry
     estimated scf accuracy    <       0.00006430 Ry

     iteration # 10     ecut=    90.00 Ry     beta= 0.70
     Davidson diagonalization with overlap
     ethr =  6.70E-08,  avg # of iterations =  2.4

     total cpu time spent up to now is        9.9 secs

     total energy              =    -413.82326985 Ry
     estimated scf accuracy    <       0.00000383 Ry

     iteration # 11     ecut=    90.00 Ry     beta= 0.70
     Davidson diagonalization with overlap
     ethr =  3.99E-09,  avg # of iterations =  3.3

     total cpu time spent up to now is       10.9 secs

     total energy              =    -413.82327185 Ry
     estimated scf accuracy    <       0.00000020 Ry

     iteration # 12     ecut=    90.00 Ry     beta= 0.70
     Davidson diagonalization with overlap
     ethr =  2.06E-10,  avg # of iterations =  2.9

     total cpu time spent up to now is       11.8 secs

     End of self-consistent calculation

          k = 0.0000 0.0000 0.0000 ( 26843 PWs)   bands (ev):

   -20.8637 -20.3048 -20.3048 -20.0382 -20.0382 -20.0117 -20.0117 -19.9861
   -19.9830 -19.6188 -19.6188 -19.2429  -8.0895  -7.8677  -7.8143  -7.8143
    -7.6921  -7.6921  -7.2718  -7.1018  -7.1018  -6.8754  -6.8754  -6.7175
    -6.6552  -5.6281  -5.6281  -4.9691  -4.9691  -4.8987  -4.8987  -4.5665
    -4.3470  -3.6654  -3.6654  -2.9705  -2.3855  -2.3855  -2.2688  -2.1871
    -2.1283  -2.1283  -1.9783  -1.9783  -1.9361  -1.9153  -1.8596  -1.8596

          k =-0.1498-0.0865 0.3111 ( 26859 PWs)   bands (ev):

   -20.7746 -20.3530 -20.2902 -20.2122 -20.1870 -20.0968 -19.9226 -19.8722
   -19.8052 -19.6277 -19.5769 -19.3150  -8.0270  -7.9402  -7.8565  -7.8000
    -7.6766  -7.6102  -7.2778  -7.0778  -7.0533  -6.9128  -6.7602  -6.7242
    -6.4864  -5.7909  -5.6397  -5.3481  -4.9970  -4.8311  -4.6907  -4.4381
    -4.3798  -3.6544  -3.5894  -3.1078  -2.5271  -2.4423  -2.3007  -2.2375
    -2.1714  -2.1253  -2.0799  -2.0135  -1.9334  -1.8949  -1.8473  -1.7941

          k = 0.2996 0.1730-0.6221 ( 26840 PWs)   bands (ev):

   -20.5467 -20.5364 -20.3365 -20.3064 -20.1881 -20.1776 -19.8593 -19.8408
   -19.6409 -19.6301 -19.5064 -19.4748  -7.9952  -7.9337  -7.8449  -7.8142
    -7.6871  -7.6157  -7.2203  -7.0803  -7.0301  -6.9236  -6.6618  -6.6611
    -6.2015  -6.0491  -5.6952  -5.5352  -4.9921  -4.9049  -4.6774  -4.5099
    -3.9202  -3.8162  -3.5229  -3.2857  -2.6550  -2.4701  -2.3305  -2.3029
    -2.2172  -2.1876  -2.0876  -2.0157  -2.0030  -1.8508  -1.8339  -1.7430

          k =-0.1498 0.0865 0.6221 ( 26887 PWs)   bands (ev):

   -20.5929 -20.4278 -20.4122 -20.2674 -20.2429 -20.1653 -19.8632 -19.7651
   -19.7216 -19.5805 -19.5590 -19.4461  -8.0046  -7.9095  -7.8889  -7.7730
    -7.7033  -7.5969  -7.2231  -7.1289  -7.0655  -6.7976  -6.7198  -6.6570
    -6.2082  -5.9725  -5.8597  -5.3420  -5.1470  -4.9485  -4.5968  -4.3729
    -4.1573  -3.6224  -3.5845  -3.3076  -2.6271  -2.5218  -2.3193  -2.2614
    -2.2244  -2.1703  -2.1170  -2.0231  -1.9871  -1.8604  -1.8405  -1.7356

          k = 0.2996 0.3460-0.3111 ( 26834 PWs)   bands (ev):

   -20.6581 -20.4685 -20.3298 -20.3136 -20.2017 -20.1258 -19.8641 -19.7467
   -19.7326 -19.6228 -19.5522 -19.4165  -8.0159  -7.9847  -7.8177  -7.7924
    -7.7223  -7.6151  -7.2696  -7.1987  -7.0557  -6.7615  -6.7282  -6.6420
    -6.3511  -6.0041  -5.7406  -5.3720  -5.3193  -4.7530  -4.5617  -4.2773
    -4.0290  -3.7900  -3.5724  -3.2735  -2.5156  -2.4383  -2.3382  -2.2595
    -2.1949  -2.1329  -2.0691  -2.0523  -1.9535  -1.9124  -1.8413  -1.7189

          k = 0.1498 0.2595 0.0000 ( 26866 PWs)   bands (ev):

   -20.7997 -20.3998 -20.3307 -20.1695 -20.1374 -20.0398 -19.9482 -19.8603
   -19.8138 -19.6335 -19.5887 -19.3004  -8.0705  -7.9568  -7.8456  -7.7888
    -7.6548  -7.6461  -7.3531  -7.1853  -6.9737  -6.8777  -6.7918  -6.6576
    -6.6465  -5.7632  -5.6144  -5.3442  -5.2262  -4.6991  -4.5465  -4.4249
    -4.2147  -3.7401  -3.6477  -3.0571  -2.3889  -2.3618  -2.3146  -2.2226
    -2.1765  -2.1444  -2.0072  -1.9887  -1.9496  -1.9364  -1.8161  -1.7982

          k = 0.2996-0.1730-1.2442 ( 26838 PWs)   bands (ev):

   -20.6467 -20.5981 -20.3517 -20.2261 -20.1396 -20.0625 -19.8843 -19.8348
   -19.7051 -19.6741 -19.4593 -19.4383  -8.0488  -8.0026  -7.8493  -7.8118
    -7.6334  -7.6196  -7.3595  -7.2727  -6.9628  -6.9030  -6.6966  -6.6420
    -6.2576  -6.2180  -5.6960  -5.4687  -5.1260  -4.8251  -4.4010  -4.1409
    -4.0199  -3.9786  -3.4846  -3.2810  -2.4116  -2.3485  -2.3217  -2.2645
    -2.1818  -2.1015  -2.0886  -1.9987  -1.9907  -1.9305  -1.7737  -1.7608

          k = 0.0000 0.0000 0.9332 ( 26802 PWs)   bands (ev):

   -20.5288 -20.5288 -20.4338 -20.3703 -20.1547 -20.1547 -19.7745 -19.7745
   -19.6368 -19.5738 -19.5509 -19.5509  -7.9863  -7.9863  -7.8306  -7.7266
    -7.7197  -7.7197  -7.2793  -7.1634  -7.1634  -6.6545  -6.6545  -6.6094
    -6.1217  -6.1217  -6.1155  -5.3961  -5.0456  -5.0456  -4.3261  -4.1322
    -4.1322  -3.6434  -3.6434  -3.4770  -2.4487  -2.4487  -2.3115  -2.2301
    -2.1643  -2.1643  -2.0918  -2.0262  -2.0262  -1.8955  -1.8955  -1.6910

          k = 0.4494 0.2595 0.0000 ( 26834 PWs)   bands (ev):

   -20.6811 -20.4812 -20.4705 -20.2270 -20.0740 -20.0535 -19.9006 -19.8879
   -19.7059 -19.5889 -19.5464 -19.4037  -8.0400  -7.9930  -7.9123  -7.7407
    -7.6742  -7.6073  -7.3764  -7.2148  -7.0711  -6.7835  -6.7193  -6.6700
    -6.3813  -5.9599  -5.8746  -5.4188  -5.1287  -4.8245  -4.3329  -4.2932
    -4.0662  -3.7545  -3.6106  -3.2531  -2.3883  -2.3797  -2.3064  -2.2697
    -2.1957  -2.1254  -2.0487  -2.0216  -1.9575  -1.9039  -1.8348  -1.7388

          k = 0.2996 0.1730 0.3111 ( 26853 PWs)   bands (ev):

   -20.7145 -20.4101 -20.3027 -20.2882 -20.1850 -20.1147 -19.8820 -19.8515
   -19.7591 -19.6166 -19.5475 -19.3604  -8.0371  -7.9735  -7.8820  -7.7389
    -7.7222  -7.5511  -7.3106  -7.1581  -6.9580  -6.8751  -6.8180  -6.7022
    -6.3817  -5.7882  -5.5964  -5.5078  -5.2712  -4.8635  -4.5389  -4.3161
    -4.1637  -3.7171  -3.5874  -3.1467  -2.5369  -2.4571  -2.3643  -2.3081
    -2.1910  -2.1444  -2.0553  -2.0148  -1.9167  -1.8732  -1.8041  -1.7884

          k = 0.4494-0.2595-0.9332 ( 26841 PWs)   bands (ev):

   -20.5603 -20.5514 -20.3899 -20.3115 -20.1696 -20.0808 -19.9285 -19.8298
   -19.6551 -19.5946 -19.5306 -19.4292  -8.0680  -7.9573  -7.9129  -7.7413
    -7.6889  -7.5321  -7.3665  -7.1198  -6.9808  -6.9182  -6.7465  -6.7076
    -6.0785  -6.0392  -5.6788  -5.5270  -5.3199  -4.9626  -4.4888  -4.1858
    -3.8735  -3.8068  -3.6265  -3.2267  -2.5294  -2.4807  -2.4376  -2.3098
    -2.2686  -2.1642  -1.9955  -1.9699  -1.9296  -1.8870  -1.8067  -1.7470

          k = 0.2996-0.3460-0.6221 ( 26842 PWs)   bands (ev):

   -20.5060 -20.4893 -20.3741 -20.3545 -20.2105 -20.2061 -19.8372 -19.8246
   -19.6433 -19.6312 -19.5010 -19.4650  -8.0819  -7.8624  -7.8304  -7.8059
    -7.7649  -7.5338  -7.2539  -7.1335  -6.9489  -6.9009  -6.7180  -6.7123
    -6.0400  -5.9047  -5.7198  -5.5904  -5.2310  -5.1907  -4.3988  -4.3220
    -3.8789  -3.8364  -3.6194  -3.2086  -2.6882  -2.4997  -2.4331  -2.3548
    -2.2870  -2.1274  -2.0491  -2.0028  -1.9727  -1.8363  -1.8157  -1.7251

          k = 0.0000 0.0000-1.8663 ( 26790 PWs)   bands (ev):

   -20.4640 -20.4250 -20.3361 -20.3361 -20.3275 -20.3275 -19.7500 -19.7500
   -19.6966 -19.6966 -19.4823 -19.4499  -8.1361  -7.8150  -7.8150  -7.7991
    -7.7991  -7.5040  -7.3083  -7.1354  -6.8405  -6.8405  -6.8088  -6.8088
    -5.8346  -5.6679  -5.5962  -5.5962  -5.5711  -5.5711  -4.1523  -4.1523
    -3.9273  -3.9273  -3.6250  -3.1545  -2.7227  -2.5055  -2.5055  -2.4019
    -2.4019  -2.0624  -2.0468  -1.9246  -1.9246  -1.8518  -1.8518  -1.6956

          k = 0.2996-0.3460 0.3111 ( 26834 PWs)   bands (ev):

   -20.6583 -20.4653 -20.3475 -20.3006 -20.1977 -20.1262 -19.8669 -19.7658
   -19.7009 -19.6428 -19.5411 -19.4192  -8.0321  -7.9493  -7.8573  -7.7811
    -7.6994  -7.6203  -7.3254  -7.1618  -7.0301  -6.8052  -6.6867  -6.6654
    -6.3394  -5.9295  -5.8494  -5.4164  -5.1715  -4.8242  -4.6470  -4.1744
    -3.9991  -3.7800  -3.6576  -3.2447  -2.5261  -2.4036  -2.3549  -2.2568
    -2.2053  -2.1375  -2.0730  -2.0498  -1.9731  -1.8769  -1.8416  -1.7287

     highest occupied level (ev):    -1.6910

!    total energy              =    -413.82327191 Ry
     estimated scf accuracy    <       0.00000003 Ry

     The total energy is the sum of the following terms:
     one-electron contribution =    -279.13853054 Ry
     hartree contribution      =     175.67652381 Ry
     xc contribution           =    -102.15404186 Ry
     ewald contribution        =    -208.20722331 Ry

     convergence has been achieved in  12 iterations

     Forces acting on atoms (cartesian axes, Ry/au):

     atom    1 type  2   force =    -0.01462598    0.00983740   -0.00602518
     atom    2 type  2   force =     0.01462598   -0.00983740    0.00602518
     atom    3 type  2   force =    -0.00120645   -0.01758517   -0.00602518
     atom    4 type  2   force =     0.00120645    0.01758517    0.00602518
     atom    5 type  2   force =     0.01583243    0.00774777   -0.00602518
     atom    6 type  2   force =    -0.01583243   -0.00774777    0.00602518
     atom    7 type  2   force =     0.01314346   -0.00564440    0.00621735
     atom    8 type  2   force =    -0.01314346    0.00564440   -0.00621735
     atom    9 type  2   force =    -0.00168353    0.01420477    0.00621735
     atom   10 type  2   force =     0.00168353   -0.01420477   -0.00621735
     atom   11 type  2   force =    -0.01145993   -0.00856037    0.00621735
     atom   12 type  2   force =     0.01145993    0.00856037   -0.00621735
     atom   13 type  1   force =    -0.01714873    0.01710683   -0.06874293
     atom   14 type  1   force =     0.01714873   -0.01710683    0.06874293
     atom   15 type  1   force =    -0.00624058   -0.02340465   -0.06874293
     atom   16 type  1   force =     0.00624058    0.02340465    0.06874293
     atom   17 type  1   force =     0.02338931    0.00629782   -0.06874293
     atom   18 type  1   force =    -0.02338931   -0.00629782    0.06874293
     atom   19 type  1   force =     0.03199035   -0.03468077    0.06288364
     atom   20 type  1   force =    -0.03199035    0.03468077   -0.06288364
     atom   21 type  1   force =     0.01403925    0.04504484    0.06288364
     atom   22 type  1   force =    -0.01403925   -0.04504484   -0.06288364
     atom   23 type  1   force =    -0.04602960   -0.01036407    0.06288364
     atom   24 type  1   force =     0.04602960    0.01036407   -0.06288364
     atom   25 type  1   force =     0.00129017    0.04920146    0.00984665
     atom   26 type  1   force =    -0.00129017   -0.04920146   -0.00984665
     atom   27 type  1   force =    -0.04325480   -0.02348341    0.00984665
     atom   28 type  1   force =     0.04325480    0.02348341   -0.00984665
     atom   29 type  1   force =     0.04196463   -0.02571805    0.00984665
     atom   30 type  1   force =    -0.04196463    0.02571805   -0.00984665
     atom   31 type  1   force =     0.00570950   -0.03872246   -0.01061609
     atom   32 type  1   force =    -0.00570950    0.03872246    0.01061609
     atom   33 type  1   force =     0.03067989    0.02430580   -0.01061609
     atom   34 type  1   force =    -0.03067989   -0.02430580    0.01061609
     atom   35 type  1   force =    -0.03638939    0.01441666   -0.01061609
     atom   36 type  1   force =     0.03638939   -0.01441666    0.01061609

     Total force =     0.312223     Total SCF correction =     0.000184


     Computing stress (Cartesian axis) and pressure

          total   stress  (Ry/bohr**3)                   (kbar)     P=       64.22
   0.00036541  -0.00000000   0.00000000           53.75       -0.00        0.00
   0.00000000   0.00036541   0.00000000            0.00       53.75        0.00
   0.00000000   0.00000000   0.00057895            0.00        0.00       85.17


     Writing all to output data dir ./iceII/iceII.save/ :
     XML data file, charge density, pseudopotentials, collected wavefunctions

     init_run     :      0.89s CPU      0.93s WALL (       1 calls)
     electrons    :     10.41s CPU     10.72s WALL (       1 calls)
     forces       :      0.12s CPU      0.12s WALL (       1 calls)
     stress       :      0.78s CPU      0.80s WALL (       1 calls)

     Called by init_run:
     wfcinit      :      0.33s CPU      0.34s WALL (       1 calls)
     potinit      :      0.03s CPU      0.05s WALL (       1 calls)
     hinit0       :      0.39s CPU      0.39s WALL (       1 calls)

     Called by electrons:
     c_bands      :      8.88s CPU      9.10s WALL (      12 calls)
     sum_band     :      1.19s CPU      1.21s WALL (      12 calls)
     v_of_rho     :      0.24s CPU      0.26s WALL (      13 calls)
     newd         :      0.05s CPU      0.05s WALL (      13 calls)
     mix_rho      :      0.04s CPU      0.04s WALL (      12 calls)

     Called by c_bands:
     init_us_2    :      0.12s CPU      0.14s WALL (     108 calls)
     cegterg      :      8.47s CPU      8.64s WALL (      48 calls)

     Called by *egterg:
     cdiaghg      :      0.72s CPU      0.72s WALL (     187 calls)
     h_psi        :      6.66s CPU      6.79s WALL (     191 calls)
     s_psi        :      0.25s CPU      0.26s WALL (     191 calls)
     g_psi        :      0.02s CPU      0.02s WALL (     139 calls)

     Called by h_psi:
     h_psi:calbec :      0.46s CPU      0.46s WALL (     191 calls)
     vloc_psi     :      5.88s CPU      5.99s WALL (     191 calls)
     add_vuspsi   :      0.28s CPU      0.28s WALL (     191 calls)

     General routines
     calbec       :      0.61s CPU      0.62s WALL (     259 calls)
     fft          :      0.50s CPU      0.50s WALL (     151 calls)
     ffts         :      0.01s CPU      0.01s WALL (      12 calls)
     fftw         :      6.12s CPU      6.22s WALL (   17288 calls)

     Parallel routines

     PWSCF        :     12.47s CPU     13.18s WALL


   This run was terminated on:  18:34:48  21Mar2026            

=------------------------------------------------------------------------------=
   JOB DONE.
=------------------------------------------------------------------------------=
