
     Program PWSCF v.7.3.1 starts on 23Mar2026 at 17:53:48 

     This program is part of the open-source Quantum ESPRESSO suite
     for quantum simulation of materials; please cite
         "P. Giannozzi et al., J. Phys.:Condens. Matter 21 395502 (2009);
         "P. Giannozzi et al., J. Phys.:Condens. Matter 29 465901 (2017);
         "P. Giannozzi et al., J. Chem. Phys. 152 154105 (2020);
          URL http://www.quantum-espresso.org", 
     in publications or presentations arising from this work. More details at
     http://www.quantum-espresso.org/quote

     Parallel version (MPI), running on   128 processors

     MPI processes distributed on     1 nodes
     242988 MiB available memory on the printing compute node when the environment starts

     Waiting for input...
     Reading input from standard input

     Current dimensions of program PWSCF are:
     Max number of different atomic species (ntypx) = 10
     Max number of k-points (npk) =  40000
     Max angular momentum in pseudopotentials (lmaxx) =  4

     K-points division:     npool     =       4
     R & G space division:  proc/nbgrp/npool/nimage =      32
     Subspace diagonalization in iterative solution of the eigenvalue problem:
     a serial algorithm will be used


     Parallelization info
     --------------------
     sticks:   dense  smooth     PW     G-vecs:    dense   smooth      PW
     Min         167     167     49                 6751     6751    1082
     Max         168     168     50                 6754     6754    1084
     Sum        5357    5357   1583               216065   216065   34639

     Using Slab Decomposition



     bravais-lattice index     =            5
     lattice parameter (alat)  =      14.2610  a.u.
     unit-cell volume          =    1873.8849 (a.u.)^3
     number of atoms/cell      =           36
     number of atomic types    =            2
     number of electrons       =        96.00
     number of Kohn-Sham states=           48
     kinetic-energy cutoff     =      90.0000  Ry
     charge density cutoff     =     360.0000  Ry
     scf convergence threshold =      1.0E-07
     mixing beta               =       0.7000
     number of iterations used =            8  plain     mixing
     Exchange-correlation=  SLA  PW   PBE  PBE
                           (   1   4   3   4   0   0   0)

     celldm(1)=  14.261006  celldm(2)=   0.000000  celldm(3)=   0.000000
     celldm(4)=  -0.392337  celldm(5)=   0.000000  celldm(6)=   0.000000

     crystal axes: (cart. coord. in units of alat)
               a(1) = (   0.834367  -0.481722   0.267909 )  
               a(2) = (   0.000000   0.963444   0.267909 )  
               a(3) = (  -0.834367  -0.481722   0.267909 )  

     reciprocal axes: (cart. coord. in units 2 pi/alat)
               b(1) = (  0.599257 -0.345981  1.244203 )  
               b(2) = ( -0.000000  0.691962  1.244203 )  
               b(3) = ( -0.599257 -0.345981  1.244203 )  


     PseudoPot. # 1 for H  read from file:
     ./H.pbe-van_ak.UPF
     MD5 check sum: 077eb6d537518a38cb46c6de387227b7
     Pseudo is Ultrasoft, Zval =  1.0
     Generated by new atomic code, or converted to UPF format
     Using radial grid of  615 points,  1 beta functions with: 
                l(1) =   0
     Q(r) pseudized with  8 coefficients,  rinner =    0.800

     PseudoPot. # 2 for O  read from file:
     ./O.pbe-van_ak.UPF
     MD5 check sum: 78c19812648e8988a0fe644b0f25305e
     Pseudo is Ultrasoft, Zval =  6.0
     Generated by new atomic code, or converted to UPF format
     Using radial grid of  737 points,  4 beta functions with: 
                l(1) =   0
                l(2) =   0
                l(3) =   1
                l(4) =   1
     Q(r) pseudized with  8 coefficients,  rinner =    0.800   0.800   0.800


     atomic species   valence    mass     pseudopotential
     H                 1.00     1.00800     H ( 1.00)
     O                 6.00    16.00000     O ( 1.00)

      6 Sym. Ops., with inversion, found



   Cartesian axes

     site n.     atom                  positions (alat units)
         1        O      tau(   1) = (  -0.4910119  -0.5205722   0.3052394  )
         2        O      tau(   2) = (   0.4910119   0.5205722   0.4984877  )
         3        O      tau(   3) = (   0.6963347  -0.1649427   0.3052394  )
         4        O      tau(   4) = (  -0.6963347   0.1649427   0.4984877  )
         5        O      tau(   5) = (  -0.2053228   0.6855149   0.3052394  )
         6        O      tau(   6) = (   0.2053228  -0.6855149   0.4984877  )
         7        O      tau(   7) = (   0.1229870   0.3303028   0.4196306  )
         8        O      tau(   8) = (  -0.1229870  -0.3303028   0.3840965  )
         9        O      tau(   9) = (  -0.3475441  -0.0586415   0.4196306  )
        10        O      tau(  10) = (   0.3475441   0.0586415   0.3840965  )
        11        O      tau(  11) = (   0.2245571  -0.2716613   0.4196306  )
        12        O      tau(  12) = (  -0.2245571   0.2716612   0.3840965  )
        13        H      tau(  13) = (  -0.5446961  -0.4126715   0.2597134  )
        14        H      tau(  14) = (   0.5446961   0.4126715   0.5440137  )
        15        H      tau(  15) = (   0.6297321  -0.2653849   0.2597134  )
        16        H      tau(  16) = (  -0.6297321   0.2653849   0.5440137  )
        17        H      tau(  17) = (  -0.0850360   0.6780564   0.2597134  )
        18        H      tau(  18) = (   0.0850360  -0.6780564   0.5440137  )
        19        H      tau(  19) = (  -0.4726389  -0.4926041   0.4288765  )
        20        H      tau(  20) = (   0.4726389   0.4926042   0.3748506  )
        21        H      tau(  21) = (   0.6629272  -0.1630152   0.4288765  )
        22        H      tau(  22) = (  -0.6629272   0.1630152   0.3748506  )
        23        H      tau(  23) = (  -0.1902883   0.6556194   0.4288765  )
        24        H      tau(  24) = (   0.1902883  -0.6556194   0.3748506  )
        25        H      tau(  25) = (   0.2676988  -0.1507235   0.4151121  )
        26        H      tau(  26) = (  -0.2676988   0.1507234   0.3886151  )
        27        H      tau(  27) = (  -0.0033191   0.3071957   0.4151121  )
        28        H      tau(  28) = (   0.0033191  -0.3071957   0.3886151  )
        29        H      tau(  29) = (  -0.2643797  -0.1564722   0.4151121  )
        30        H      tau(  30) = (   0.2643797   0.1564723   0.3886151  )
        31        H      tau(  31) = (   0.3102941  -0.3416444   0.3555952  )
        32        H      tau(  32) = (  -0.3102941   0.3416444   0.4481319  )
        33        H      tau(  33) = (   0.1407257   0.4395448   0.3555952  )
        34        H      tau(  34) = (  -0.1407257  -0.4395448   0.4481319  )
        35        H      tau(  35) = (  -0.4510198  -0.0979003   0.3555952  )
        36        H      tau(  36) = (   0.4510198   0.0979003   0.4481319  )

     number of k points=    14
                       cart. coord. in units 2pi/alat
        k(    1) = (   0.0000000   0.0000000   0.0000000), wk =   0.0312500
        k(    2) = (  -0.1498141  -0.0864952   0.3110508), wk =   0.1875000
        k(    3) = (   0.2996283   0.1729905  -0.6221017), wk =   0.0937500
        k(    4) = (  -0.1498141   0.0864952   0.6221017), wk =   0.1875000
        k(    5) = (   0.2996283   0.3459809  -0.3110508), wk =   0.1875000
        k(    6) = (   0.1498141   0.2594857   0.0000000), wk =   0.1875000
        k(    7) = (   0.2996283  -0.1729905  -1.2442034), wk =   0.0937500
        k(    8) = (   0.0000000   0.0000000   0.9331525), wk =   0.0625000
        k(    9) = (   0.4494424   0.2594857   0.0000000), wk =   0.1875000
        k(   10) = (   0.2996283   0.1729905   0.3110508), wk =   0.1875000
        k(   11) = (   0.4494424  -0.2594857  -0.9331525), wk =   0.1875000
        k(   12) = (   0.2996283  -0.3459809  -0.6221017), wk =   0.1875000
        k(   13) = (   0.0000000   0.0000000  -1.8663050), wk =   0.0312500
        k(   14) = (   0.2996283  -0.3459809   0.3110508), wk =   0.1875000

     Dense  grid:   216065 G-vectors     FFT dimensions: (  90,  90,  90)

     Estimated max dynamical RAM per process >      14.41 MB

     Estimated total dynamical RAM >       1.65 GB

     Initial potential from superposition of free atoms

     starting charge      95.9998, renormalised to      96.0000
     Starting wfcs are   72 randomized atomic wfcs

     total cpu time spent up to now is        1.2 secs

     per-process dynamical memory:    18.9 Mb

     Self-consistent Calculation

     iteration #  1     ecut=    90.00 Ry     beta= 0.70
     Davidson diagonalization with overlap
     ethr =  1.00E-02,  avg # of iterations =  2.0

     total cpu time spent up to now is        2.0 secs

     total energy              =    -412.28084108 Ry
     estimated scf accuracy    <       4.08200147 Ry

     iteration #  2     ecut=    90.00 Ry     beta= 0.70
     Davidson diagonalization with overlap
     ethr =  4.25E-03,  avg # of iterations =  3.0

     total cpu time spent up to now is        2.9 secs

     total energy              =    -413.58624823 Ry
     estimated scf accuracy    <       2.11235757 Ry

     iteration #  3     ecut=    90.00 Ry     beta= 0.70
     Davidson diagonalization with overlap
     ethr =  2.20E-03,  avg # of iterations =  2.0

     total cpu time spent up to now is        3.7 secs

     total energy              =    -413.85512563 Ry
     estimated scf accuracy    <       0.08292458 Ry

     iteration #  4     ecut=    90.00 Ry     beta= 0.70
     Davidson diagonalization with overlap
     ethr =  8.64E-05,  avg # of iterations =  4.0

     total cpu time spent up to now is        4.8 secs

     total energy              =    -413.91647687 Ry
     estimated scf accuracy    <       0.10487431 Ry

     iteration #  5     ecut=    90.00 Ry     beta= 0.70
     Davidson diagonalization with overlap
     ethr =  8.64E-05,  avg # of iterations =  2.0

     total cpu time spent up to now is        5.5 secs

     total energy              =    -413.92156182 Ry
     estimated scf accuracy    <       0.01430330 Ry

     iteration #  6     ecut=    90.00 Ry     beta= 0.70
     Davidson diagonalization with overlap
     ethr =  1.49E-05,  avg # of iterations =  2.0

     total cpu time spent up to now is        6.2 secs

     total energy              =    -413.92145544 Ry
     estimated scf accuracy    <       0.00357885 Ry

     iteration #  7     ecut=    90.00 Ry     beta= 0.70
     Davidson diagonalization with overlap
     ethr =  3.73E-06,  avg # of iterations =  2.5

     total cpu time spent up to now is        7.2 secs

     total energy              =    -413.92326790 Ry
     estimated scf accuracy    <       0.00041923 Ry

     iteration #  8     ecut=    90.00 Ry     beta= 0.70
     Davidson diagonalization with overlap
     ethr =  4.37E-07,  avg # of iterations =  2.0

     total cpu time spent up to now is        7.9 secs

     total energy              =    -413.92304467 Ry
     estimated scf accuracy    <       0.00062437 Ry

     iteration #  9     ecut=    90.00 Ry     beta= 0.70
     Davidson diagonalization with overlap
     ethr =  4.37E-07,  avg # of iterations =  2.0

     total cpu time spent up to now is        8.7 secs

     total energy              =    -413.92308012 Ry
     estimated scf accuracy    <       0.00007658 Ry

     iteration # 10     ecut=    90.00 Ry     beta= 0.70
     Davidson diagonalization with overlap
     ethr =  7.98E-08,  avg # of iterations =  2.0

     total cpu time spent up to now is        9.4 secs

     total energy              =    -413.92309152 Ry
     estimated scf accuracy    <       0.00001171 Ry

     iteration # 11     ecut=    90.00 Ry     beta= 0.70
     Davidson diagonalization with overlap
     ethr =  1.22E-08,  avg # of iterations =  2.3

     total cpu time spent up to now is       10.2 secs

     total energy              =    -413.92309330 Ry
     estimated scf accuracy    <       0.00000209 Ry

     iteration # 12     ecut=    90.00 Ry     beta= 0.70
     Davidson diagonalization with overlap
     ethr =  2.18E-09,  avg # of iterations =  3.0

     total cpu time spent up to now is       11.1 secs

     End of self-consistent calculation

          k = 0.0000 0.0000 0.0000 ( 27011 PWs)   bands (ev):

   -20.8334 -20.2891 -20.2891 -20.0413 -20.0413 -20.0223 -19.9766 -19.9766
   -19.9451 -19.6121 -19.6121 -19.2357  -8.2892  -8.1552  -8.1456  -8.1456
    -8.0376  -8.0376  -7.7020  -7.7020  -7.6957  -7.6936  -7.6936  -7.6335
    -6.5438  -5.3190  -5.3190  -4.7198  -4.7198  -4.4455  -4.4455  -4.3706
    -4.1436  -3.4413  -3.4413  -2.6772  -2.4107  -2.4107  -2.3088  -2.1937
    -2.1937  -2.1307  -2.0469  -2.0469  -2.0443  -1.9207  -1.8920  -1.8920

          k =-0.1498-0.0865 0.3111 ( 27031 PWs)   bands (ev):

   -20.7484 -20.3291 -20.2753 -20.2074 -20.1648 -20.0832 -19.9270 -19.8613
   -19.7889 -19.6232 -19.5734 -19.3037  -8.2491  -8.1872  -8.1514  -8.1260
    -8.0348  -7.9911  -7.7889  -7.7440  -7.7079  -7.6445  -7.5997  -7.5695
    -6.3340  -5.5018  -5.3449  -5.0262  -4.8263  -4.5499  -4.2611  -4.1689
    -3.9657  -3.4453  -3.3693  -2.8245  -2.5050  -2.4403  -2.3343  -2.2773
    -2.2496  -2.1783  -2.0916  -2.0344  -1.9913  -1.9578  -1.8973  -1.8824

          k = 0.2996 0.1730-0.6221 ( 27032 PWs)   bands (ev):

   -20.5403 -20.5106 -20.3048 -20.2767 -20.1849 -20.1544 -19.8697 -19.8254
   -19.6769 -19.6054 -19.5022 -19.4453  -8.2059  -8.1931  -8.1474  -8.1277
    -8.0449  -7.9683  -7.7941  -7.7628  -7.7160  -7.6572  -7.5228  -7.5047
    -5.9325  -5.7962  -5.3723  -5.3341  -4.8047  -4.7536  -4.1089  -4.0524
    -3.5693  -3.5510  -3.3455  -3.0761  -2.5817  -2.4667  -2.3563  -2.3532
    -2.2795  -2.1670  -2.1557  -2.0686  -2.0378  -1.9473  -1.8643  -1.8631

          k =-0.1498 0.0865 0.6221 ( 27024 PWs)   bands (ev):

   -20.5796 -20.4024 -20.3889 -20.2491 -20.2242 -20.1428 -19.8677 -19.7684
   -19.7189 -19.5811 -19.5535 -19.4199  -8.2035  -8.1810  -8.1638  -8.1397
    -8.0304  -7.9571  -7.7910  -7.7687  -7.7623  -7.5863  -7.5484  -7.5136
    -5.9684  -5.6541  -5.6012  -5.1172  -4.9459  -4.7373  -4.1366  -3.8772
    -3.7848  -3.4363  -3.3391  -3.1077  -2.5718  -2.4915  -2.3595  -2.3118
    -2.2472  -2.2189  -2.1594  -2.0520  -2.0357  -1.9565  -1.8868  -1.8396

          k = 0.2996 0.3460-0.3111 ( 27001 PWs)   bands (ev):

   -20.6320 -20.4383 -20.3527 -20.2771 -20.1773 -20.0968 -19.8880 -19.7700
   -19.6722 -19.6465 -19.5284 -19.4054  -8.2153  -8.2065  -8.1286  -8.1105
    -8.0411  -7.9807  -7.8713  -7.8387  -7.7673  -7.5907  -7.5728  -7.5148
    -6.0200  -5.6425  -5.4187  -5.1516  -5.1251  -4.5229  -4.0803  -3.9350
    -3.7987  -3.4903  -3.3358  -3.0280  -2.4938  -2.4382  -2.3700  -2.2926
    -2.2447  -2.1594  -2.1267  -2.0983  -2.0105  -1.9995  -1.8631  -1.8045

          k = 0.1498 0.2595 0.0000 ( 27050 PWs)   bands (ev):

   -20.7698 -20.3787 -20.3122 -20.1758 -20.1137 -20.0310 -19.9446 -19.8673
   -19.7845 -19.6228 -19.5796 -19.2937  -8.2626  -8.1828  -8.1473  -8.1123
    -8.0319  -8.0184  -7.8629  -7.8005  -7.7263  -7.6438  -7.6199  -7.5792
    -6.3403  -5.3866  -5.3095  -5.0512  -5.0127  -4.3763  -4.2269  -4.0852
    -4.0054  -3.4739  -3.4338  -2.7628  -2.4106  -2.3864  -2.3557  -2.2561
    -2.2047  -2.1639  -2.0911  -2.0702  -2.0142  -1.9572  -1.8541  -1.8367

          k = 0.2996-0.1730-1.2442 ( 27010 PWs)   bands (ev):

   -20.6130 -20.5773 -20.3297 -20.2356 -20.1086 -20.0653 -19.8620 -19.8618
   -19.6730 -19.6613 -19.4635 -19.4216  -8.2275  -8.1945  -8.1304  -8.1051
    -8.0117  -8.0092  -7.9599  -7.8681  -7.7533  -7.6362  -7.6013  -7.5432
    -5.8584  -5.8332  -5.3544  -5.2779  -4.9145  -4.5146  -4.0376  -3.9681
    -3.7574  -3.6108  -3.2388  -3.0207  -2.4170  -2.3793  -2.3483  -2.2963
    -2.2206  -2.1582  -2.1428  -2.0665  -2.0470  -1.9738  -1.8131  -1.8037

          k = 0.0000 0.0000 0.9332 ( 27036 PWs)   bands (ev):

   -20.4963 -20.4963 -20.4384 -20.3611 -20.1278 -20.1278 -19.7931 -19.7931
   -19.6345 -19.5462 -19.5462 -19.5239  -8.2020  -8.2020  -8.1454  -8.0947
    -8.0307  -8.0307  -7.9065  -7.8212  -7.8212  -7.5346  -7.5346  -7.4964
    -5.7340  -5.7340  -5.6604  -5.3175  -4.8494  -4.8494  -3.8258  -3.8258
    -3.7027  -3.4124  -3.4124  -3.2825  -2.4427  -2.4427  -2.3301  -2.2963
    -2.2134  -2.2134  -2.1297  -2.0795  -2.0795  -1.9374  -1.9374  -1.7738

          k = 0.4494 0.2595 0.0000 ( 26995 PWs)   bands (ev):

   -20.6516 -20.4518 -20.4511 -20.2371 -20.0618 -20.0324 -19.9146 -19.8755
   -19.6795 -19.5868 -19.5356 -19.3948  -8.2234  -8.1862  -8.1583  -8.0725
    -8.0486  -7.9825  -7.9709  -7.8436  -7.7935  -7.6148  -7.5799  -7.5646
    -5.9993  -5.5347  -5.4852  -5.3374  -4.8717  -4.5128  -4.1103  -3.9953
    -3.6749  -3.4940  -3.3874  -2.9829  -2.3985  -2.3815  -2.3634  -2.2912
    -2.2393  -2.1737  -2.1275  -2.0947  -2.0023  -1.9461  -1.8717  -1.7779

          k = 0.2996 0.1730 0.3111 ( 27032 PWs)   bands (ev):

   -20.6887 -20.3840 -20.2940 -20.2733 -20.1704 -20.0970 -19.8891 -19.8397
   -19.7442 -19.6161 -19.5398 -19.3481  -8.2290  -8.1904  -8.1543  -8.0863
    -8.0473  -7.9576  -7.8716  -7.7439  -7.7134  -7.6904  -7.6256  -7.5471
    -6.1539  -5.4897  -5.4245  -5.0813  -5.0235  -4.5265  -4.1703  -4.0014
    -3.9551  -3.4323  -3.3546  -2.8810  -2.5255  -2.4267  -2.3770  -2.3374
    -2.2644  -2.1729  -2.1016  -2.0729  -1.9931  -1.9572  -1.8738  -1.8212

          k = 0.4494-0.2595-0.9332 ( 27012 PWs)   bands (ev):

   -20.5318 -20.5305 -20.3664 -20.3066 -20.1590 -20.0630 -19.9293 -19.8115
   -19.6545 -19.5914 -19.5317 -19.4078  -8.2062  -8.1809  -8.1536  -8.0690
    -8.0341  -7.9503  -7.9071  -7.8164  -7.7374  -7.6911  -7.6087  -7.5597
    -5.8341  -5.6596  -5.4721  -5.2752  -4.9759  -4.5197  -4.2572  -3.9452
    -3.6604  -3.4223  -3.3816  -2.9911  -2.5231  -2.4459  -2.4047  -2.3439
    -2.3099  -2.2061  -2.0939  -2.0549  -1.9970  -1.9641  -1.8710  -1.7723

          k = 0.2996-0.3460-0.6221 ( 27002 PWs)   bands (ev):

   -20.4975 -20.4656 -20.3459 -20.3402 -20.1901 -20.1790 -19.8440 -19.8227
   -19.6434 -19.6207 -19.5212 -19.4249  -8.2112  -8.1569  -8.1291  -8.1079
    -8.0736  -7.9151  -7.8295  -7.7955  -7.7101  -7.6679  -7.5663  -7.5543
    -5.7785  -5.7408  -5.4203  -5.3570  -4.8662  -4.8186  -4.0562  -3.9723
    -3.6220  -3.5930  -3.2788  -3.0613  -2.5987  -2.4666  -2.4144  -2.3962
    -2.2969  -2.2198  -2.0866  -2.0587  -2.0422  -1.9384  -1.9147  -1.7726

          k = 0.0000 0.0000-1.8663 ( 26928 PWs)   bands (ev):

   -20.4427 -20.4087 -20.3451 -20.3451 -20.2788 -20.2788 -19.7496 -19.7496
   -19.6871 -19.6871 -19.5194 -19.4021  -8.2118  -8.1060  -8.1060  -8.0947
    -8.0947  -7.8930  -7.8635  -7.8115  -7.6796  -7.6796  -7.6221  -7.6221
    -5.7753  -5.6056  -5.2257  -5.2257  -5.1055  -5.1055  -3.8093  -3.8093
    -3.7526  -3.7526  -3.2283  -3.0410  -2.5656  -2.4592  -2.4592  -2.4447
    -2.4447  -2.1760  -2.0559  -1.9932  -1.9932  -1.9786  -1.9786  -1.7217

          k = 0.2996-0.3460 0.3111 ( 27001 PWs)   bands (ev):

   -20.6315 -20.4451 -20.3303 -20.2958 -20.1746 -20.0979 -19.8829 -19.7599
   -19.7209 -19.5925 -19.5487 -19.4044  -8.2248  -8.1881  -8.1420  -8.0859
    -8.0608  -7.9849  -7.8881  -7.8208  -7.7640  -7.5905  -7.5656  -7.5228
    -6.0249  -5.6156  -5.4769  -5.1219  -5.0720  -4.5919  -4.1683  -3.8142
    -3.7051  -3.5454  -3.4187  -2.9936  -2.5060  -2.4052  -2.3744  -2.2950
    -2.2504  -2.1682  -2.1244  -2.1049  -2.0439  -1.9543  -1.8689  -1.8063

     highest occupied level (ev):    -1.7217

!    total energy              =    -413.92309390 Ry
     estimated scf accuracy    <       0.00000005 Ry

     The total energy is the sum of the following terms:
     one-electron contribution =    -279.31880699 Ry
     hartree contribution      =     175.66768166 Ry
     xc contribution           =    -102.35309770 Ry
     ewald contribution        =    -207.91887086 Ry

     convergence has been achieved in  12 iterations

     Forces acting on atoms (cartesian axes, Ry/au):

     atom    1 type  2   force =     0.01445359   -0.05071856   -0.03033676
     atom    2 type  2   force =    -0.01445359    0.05071856    0.03033676
     atom    3 type  2   force =     0.03669677    0.03787645   -0.03033676
     atom    4 type  2   force =    -0.03669677   -0.03787645    0.03033676
     atom    5 type  2   force =    -0.05115035    0.01284211   -0.03033676
     atom    6 type  2   force =     0.05115035   -0.01284211    0.03033676
     atom    7 type  2   force =     0.04068155   -0.03130468    0.02543774
     atom    8 type  2   force =    -0.04068155    0.03130468   -0.02543774
     atom    9 type  2   force =     0.00676988    0.05088359    0.02543774
     atom   10 type  2   force =    -0.00676988   -0.05088359   -0.02543774
     atom   11 type  2   force =    -0.04745142   -0.01957891    0.02543774
     atom   12 type  2   force =     0.04745142    0.01957891   -0.02543774
     atom   13 type  1   force =    -0.02092160    0.04109208   -0.02031248
     atom   14 type  1   force =     0.02092160   -0.04109208    0.02031248
     atom   15 type  1   force =    -0.02512599   -0.03866468   -0.02031248
     atom   16 type  1   force =     0.02512599    0.03866468    0.02031248
     atom   17 type  1   force =     0.04604759   -0.00242740   -0.02031248
     atom   18 type  1   force =    -0.04604759    0.00242740    0.02031248
     atom   19 type  1   force =     0.00997076    0.00862858    0.05150308
     atom   20 type  1   force =    -0.00997076   -0.00862858   -0.05150308
     atom   21 type  1   force =    -0.01245795    0.00432064    0.05150308
     atom   22 type  1   force =     0.01245795   -0.00432064   -0.05150308
     atom   23 type  1   force =     0.00248719   -0.01294922    0.05150308
     atom   24 type  1   force =    -0.00248719    0.01294922   -0.05150308
     atom   25 type  1   force =     0.01536685    0.04994932   -0.00020698
     atom   26 type  1   force =    -0.01536685   -0.04994932    0.00020698
     atom   27 type  1   force =    -0.05094081   -0.01166658   -0.00020698
     atom   28 type  1   force =     0.05094081    0.01166658    0.00020698
     atom   29 type  1   force =     0.03557396   -0.03828275   -0.00020698
     atom   30 type  1   force =    -0.03557396    0.03828275    0.00020698
     atom   31 type  1   force =     0.03408815   -0.03170896   -0.02647038
     atom   32 type  1   force =    -0.03408815    0.03170896    0.02647038
     atom   33 type  1   force =     0.01041669    0.04537569   -0.02647038
     atom   34 type  1   force =    -0.01041669   -0.04537569    0.02647038
     atom   35 type  1   force =    -0.04450484   -0.01366673   -0.02647038
     atom   36 type  1   force =     0.04450484    0.01366673    0.02647038

     Total force =     0.328160     Total SCF correction =     0.000106


     Computing stress (Cartesian axis) and pressure

          total   stress  (Ry/bohr**3)                   (kbar)     P=       76.38
   0.00051788  -0.00000000  -0.00000000           76.18       -0.00       -0.00
   0.00000000   0.00051788   0.00000000            0.00       76.18        0.00
  -0.00000000   0.00000000   0.00052185           -0.00        0.00       76.77


     Writing all to output data dir ./iceII/iceII.save/ :
     XML data file, charge density, pseudopotentials, collected wavefunctions

     init_run     :      0.88s CPU      0.94s WALL (       1 calls)
     electrons    :      9.70s CPU      9.97s WALL (       1 calls)
     forces       :      0.12s CPU      0.13s WALL (       1 calls)
     stress       :      0.80s CPU      0.81s WALL (       1 calls)

     Called by init_run:
     wfcinit      :      0.33s CPU      0.34s WALL (       1 calls)
     potinit      :      0.02s CPU      0.04s WALL (       1 calls)
     hinit0       :      0.39s CPU      0.40s WALL (       1 calls)

     Called by electrons:
     c_bands      :      8.14s CPU      8.32s WALL (      12 calls)
     sum_band     :      1.22s CPU      1.24s WALL (      12 calls)
     v_of_rho     :      0.24s CPU      0.26s WALL (      13 calls)
     newd         :      0.05s CPU      0.05s WALL (      13 calls)
     mix_rho      :      0.03s CPU      0.04s WALL (      12 calls)

     Called by c_bands:
     init_us_2    :      0.13s CPU      0.15s WALL (     108 calls)
     cegterg      :      7.89s CPU      8.03s WALL (      48 calls)

     Called by *egterg:
     cdiaghg      :      0.61s CPU      0.62s WALL (     164 calls)
     h_psi        :      6.31s CPU      6.41s WALL (     168 calls)
     s_psi        :      0.24s CPU      0.24s WALL (     168 calls)
     g_psi        :      0.02s CPU      0.02s WALL (     116 calls)

     Called by h_psi:
     h_psi:calbec :      0.43s CPU      0.43s WALL (     168 calls)
     vloc_psi     :      5.58s CPU      5.67s WALL (     168 calls)
     add_vuspsi   :      0.26s CPU      0.26s WALL (     168 calls)

     General routines
     calbec       :      0.59s CPU      0.60s WALL (     236 calls)
     fft          :      0.48s CPU      0.50s WALL (     151 calls)
     ffts         :      0.01s CPU      0.01s WALL (      12 calls)
     fftw         :      5.87s CPU      5.95s WALL (   16296 calls)

     Parallel routines

     PWSCF        :     11.77s CPU     12.43s WALL


   This run was terminated on:  17:54: 1  23Mar2026            

=------------------------------------------------------------------------------=
   JOB DONE.
=------------------------------------------------------------------------------=
