
     Program PWSCF v.7.3.1 starts on 21Mar2026 at 18:39: 8 

     This program is part of the open-source Quantum ESPRESSO suite
     for quantum simulation of materials; please cite
         "P. Giannozzi et al., J. Phys.:Condens. Matter 21 395502 (2009);
         "P. Giannozzi et al., J. Phys.:Condens. Matter 29 465901 (2017);
         "P. Giannozzi et al., J. Chem. Phys. 152 154105 (2020);
          URL http://www.quantum-espresso.org", 
     in publications or presentations arising from this work. More details at
     http://www.quantum-espresso.org/quote

     Parallel version (MPI), running on   128 processors

     MPI processes distributed on     1 nodes
     243013 MiB available memory on the printing compute node when the environment starts

     Waiting for input...
     Reading input from standard input

     Current dimensions of program PWSCF are:
     Max number of different atomic species (ntypx) = 10
     Max number of k-points (npk) =  40000
     Max angular momentum in pseudopotentials (lmaxx) =  4

     K-points division:     npool     =       4
     R & G space division:  proc/nbgrp/npool/nimage =      32
     Subspace diagonalization in iterative solution of the eigenvalue problem:
     a serial algorithm will be used


     Parallelization info
     --------------------
     sticks:   dense  smooth     PW     G-vecs:    dense   smooth      PW
     Min         168     168     49                 6795     6795    1089
     Max         169     169     50                 6797     6797    1092
     Sum        5387    5387   1595               217463   217463   34903

     Using Slab Decomposition



     bravais-lattice index     =            5
     lattice parameter (alat)  =      14.2904  a.u.
     unit-cell volume          =    1885.4998 (a.u.)^3
     number of atoms/cell      =           36
     number of atomic types    =            2
     number of electrons       =        96.00
     number of Kohn-Sham states=           48
     kinetic-energy cutoff     =      90.0000  Ry
     charge density cutoff     =     360.0000  Ry
     scf convergence threshold =      1.0E-07
     mixing beta               =       0.7000
     number of iterations used =            8  plain     mixing
     Exchange-correlation=  SLA  PW   PBE  PBE
                           (   1   4   3   4   0   0   0)

     celldm(1)=  14.290410  celldm(2)=   0.000000  celldm(3)=   0.000000
     celldm(4)=  -0.392337  celldm(5)=   0.000000  celldm(6)=   0.000000

     crystal axes: (cart. coord. in units of alat)
               a(1) = (   0.834367  -0.481722   0.267909 )  
               a(2) = (   0.000000   0.963444   0.267909 )  
               a(3) = (  -0.834367  -0.481722   0.267909 )  

     reciprocal axes: (cart. coord. in units 2 pi/alat)
               b(1) = (  0.599257 -0.345981  1.244203 )  
               b(2) = ( -0.000000  0.691962  1.244203 )  
               b(3) = ( -0.599257 -0.345981  1.244203 )  


     PseudoPot. # 1 for H  read from file:
     ./H.pbe-van_ak.UPF
     MD5 check sum: 077eb6d537518a38cb46c6de387227b7
     Pseudo is Ultrasoft, Zval =  1.0
     Generated by new atomic code, or converted to UPF format
     Using radial grid of  615 points,  1 beta functions with: 
                l(1) =   0
     Q(r) pseudized with  8 coefficients,  rinner =    0.800

     PseudoPot. # 2 for O  read from file:
     ./O.pbe-van_ak.UPF
     MD5 check sum: 78c19812648e8988a0fe644b0f25305e
     Pseudo is Ultrasoft, Zval =  6.0
     Generated by new atomic code, or converted to UPF format
     Using radial grid of  737 points,  4 beta functions with: 
                l(1) =   0
                l(2) =   0
                l(3) =   1
                l(4) =   1
     Q(r) pseudized with  8 coefficients,  rinner =    0.800   0.800   0.800


     atomic species   valence    mass     pseudopotential
     H                 1.00     1.00800     H ( 1.00)
     O                 6.00    16.00000     O ( 1.00)

      6 Sym. Ops., with inversion, found



   Cartesian axes

     site n.     atom                  positions (alat units)
         1        O      tau(   1) = (  -0.4847673  -0.5197781   0.3083633  )
         2        O      tau(   2) = (   0.4847673   0.5197782   0.4953638  )
         3        O      tau(   3) = (   0.6925247  -0.1599317   0.3083633  )
         4        O      tau(   4) = (  -0.6925248   0.1599317   0.4953638  )
         5        O      tau(   5) = (  -0.2077574   0.6797099   0.3083633  )
         6        O      tau(   6) = (   0.2077574  -0.6797099   0.4953638  )
         7        O      tau(   7) = (   0.1218176   0.3323883   0.4179381  )
         8        O      tau(   8) = (  -0.1218176  -0.3323883   0.3857890  )
         9        O      tau(   9) = (  -0.3487655  -0.0606970   0.4179381  )
        10        O      tau(  10) = (   0.3487655   0.0606970   0.3857890  )
        11        O      tau(  11) = (   0.2269479  -0.2716913   0.4179381  )
        12        O      tau(  12) = (  -0.2269479   0.2716912   0.3857890  )
        13        H      tau(  13) = (  -0.5381668  -0.4032014   0.2796970  )
        14        H      tau(  14) = (   0.5381668   0.4032014   0.5240301  )
        15        H      tau(  15) = (   0.6182661  -0.2644654   0.2796970  )
        16        H      tau(  16) = (  -0.6182661   0.2644654   0.5240301  )
        17        H      tau(  17) = (  -0.0800993   0.6676668   0.2796970  )
        18        H      tau(  18) = (   0.0800993  -0.6676668   0.5240301  )
        19        H      tau(  19) = (  -0.4872704  -0.4817221   0.4326731  )
        20        H      tau(  20) = (   0.4872704   0.4817221   0.3710540  )
        21        H      tau(  21) = (   0.6608188  -0.1811275   0.4326731  )
        22        H      tau(  22) = (  -0.6608188   0.1811275   0.3710540  )
        23        H      tau(  23) = (  -0.1735484   0.6628496   0.4326731  )
        24        H      tau(  24) = (   0.1735484  -0.6628496   0.3710540  )
        25        H      tau(  25) = (   0.2703349  -0.1502973   0.4058822  )
        26        H      tau(  26) = (  -0.2703350   0.1502973   0.3978449  )
        27        H      tau(  27) = (  -0.0050062   0.3092656   0.4058822  )
        28        H      tau(  28) = (   0.0050062  -0.3092656   0.3978449  )
        29        H      tau(  29) = (  -0.2653287  -0.1589683   0.4058822  )
        30        H      tau(  30) = (   0.2653287   0.1589683   0.3978449  )
        31        H      tau(  31) = (   0.3178939  -0.3347969   0.3493534  )
        32        H      tau(  32) = (  -0.3178939   0.3347969   0.4543737  )
        33        H      tau(  33) = (   0.1309957   0.4427026   0.3493534  )
        34        H      tau(  34) = (  -0.1309956  -0.4427026   0.4543737  )
        35        H      tau(  35) = (  -0.4488895  -0.1079057   0.3493534  )
        36        H      tau(  36) = (   0.4488895   0.1079057   0.4543737  )

     number of k points=    14
                       cart. coord. in units 2pi/alat
        k(    1) = (   0.0000000   0.0000000   0.0000000), wk =   0.0312500
        k(    2) = (  -0.1498141  -0.0864952   0.3110508), wk =   0.1875000
        k(    3) = (   0.2996283   0.1729905  -0.6221017), wk =   0.0937500
        k(    4) = (  -0.1498141   0.0864952   0.6221017), wk =   0.1875000
        k(    5) = (   0.2996283   0.3459809  -0.3110508), wk =   0.1875000
        k(    6) = (   0.1498141   0.2594857   0.0000000), wk =   0.1875000
        k(    7) = (   0.2996283  -0.1729905  -1.2442034), wk =   0.0937500
        k(    8) = (   0.0000000   0.0000000   0.9331525), wk =   0.0625000
        k(    9) = (   0.4494424   0.2594857   0.0000000), wk =   0.1875000
        k(   10) = (   0.2996283   0.1729905   0.3110508), wk =   0.1875000
        k(   11) = (   0.4494424  -0.2594857  -0.9331525), wk =   0.1875000
        k(   12) = (   0.2996283  -0.3459809  -0.6221017), wk =   0.1875000
        k(   13) = (   0.0000000   0.0000000  -1.8663050), wk =   0.0312500
        k(   14) = (   0.2996283  -0.3459809   0.3110508), wk =   0.1875000

     Dense  grid:   217463 G-vectors     FFT dimensions: (  90,  90,  90)

     Estimated max dynamical RAM per process >      14.48 MB

     Estimated total dynamical RAM >       1.65 GB

     Initial potential from superposition of free atoms

     starting charge      95.9998, renormalised to      96.0000
     Starting wfcs are   72 randomized atomic wfcs

     total cpu time spent up to now is        1.2 secs

     per-process dynamical memory:    18.8 Mb

     Self-consistent Calculation

     iteration #  1     ecut=    90.00 Ry     beta= 0.70
     Davidson diagonalization with overlap
     ethr =  1.00E-02,  avg # of iterations =  2.0

     total cpu time spent up to now is        2.0 secs

     total energy              =    -412.25775318 Ry
     estimated scf accuracy    <       3.87159047 Ry

     iteration #  2     ecut=    90.00 Ry     beta= 0.70
     Davidson diagonalization with overlap
     ethr =  4.03E-03,  avg # of iterations =  3.0

     total cpu time spent up to now is        2.9 secs

     total energy              =    -413.50161525 Ry
     estimated scf accuracy    <       2.09157872 Ry

     iteration #  3     ecut=    90.00 Ry     beta= 0.70
     Davidson diagonalization with overlap
     ethr =  2.18E-03,  avg # of iterations =  2.0

     total cpu time spent up to now is        3.7 secs

     total energy              =    -413.76243327 Ry
     estimated scf accuracy    <       0.08742065 Ry

     iteration #  4     ecut=    90.00 Ry     beta= 0.70
     Davidson diagonalization with overlap
     ethr =  9.11E-05,  avg # of iterations =  4.2

     total cpu time spent up to now is        4.8 secs

     total energy              =    -413.82850950 Ry
     estimated scf accuracy    <       0.10454856 Ry

     iteration #  5     ecut=    90.00 Ry     beta= 0.70
     Davidson diagonalization with overlap
     ethr =  9.11E-05,  avg # of iterations =  2.0

     total cpu time spent up to now is        5.5 secs

     total energy              =    -413.83195857 Ry
     estimated scf accuracy    <       0.01768521 Ry

     iteration #  6     ecut=    90.00 Ry     beta= 0.70
     Davidson diagonalization with overlap
     ethr =  1.84E-05,  avg # of iterations =  2.0

     total cpu time spent up to now is        6.2 secs

     total energy              =    -413.83184399 Ry
     estimated scf accuracy    <       0.00521111 Ry

     iteration #  7     ecut=    90.00 Ry     beta= 0.70
     Davidson diagonalization with overlap
     ethr =  5.43E-06,  avg # of iterations =  3.0

     total cpu time spent up to now is        7.0 secs

     total energy              =    -413.83294115 Ry
     estimated scf accuracy    <       0.00013268 Ry

     iteration #  8     ecut=    90.00 Ry     beta= 0.70
     Davidson diagonalization with overlap
     ethr =  1.38E-07,  avg # of iterations =  5.6

     total cpu time spent up to now is        8.3 secs

     total energy              =    -413.83305297 Ry
     estimated scf accuracy    <       0.00043816 Ry

     iteration #  9     ecut=    90.00 Ry     beta= 0.70
     Davidson diagonalization with overlap
     ethr =  1.38E-07,  avg # of iterations =  3.0

     total cpu time spent up to now is        9.1 secs

     total energy              =    -413.83305640 Ry
     estimated scf accuracy    <       0.00007255 Ry

     iteration # 10     ecut=    90.00 Ry     beta= 0.70
     Davidson diagonalization with overlap
     ethr =  7.56E-08,  avg # of iterations =  2.3

     total cpu time spent up to now is        9.9 secs

     total energy              =    -413.83307278 Ry
     estimated scf accuracy    <       0.00000224 Ry

     iteration # 11     ecut=    90.00 Ry     beta= 0.70
     Davidson diagonalization with overlap
     ethr =  2.34E-09,  avg # of iterations =  4.0

     total cpu time spent up to now is       10.9 secs

     total energy              =    -413.83307395 Ry
     estimated scf accuracy    <       0.00000014 Ry

     iteration # 12     ecut=    90.00 Ry     beta= 0.70
     Davidson diagonalization with overlap
     ethr =  1.50E-10,  avg # of iterations =  3.9

     total cpu time spent up to now is       11.8 secs

     End of self-consistent calculation

          k = 0.0000 0.0000 0.0000 ( 27137 PWs)   bands (ev):

   -20.8646 -20.3188 -20.3188 -20.0578 -20.0578 -20.0311 -20.0311 -20.0065
   -20.0042 -19.6477 -19.6477 -19.2799  -8.1067  -7.8876  -7.8334  -7.8334
    -7.7165  -7.7165  -7.2960  -7.1285  -7.1285  -6.9030  -6.9030  -6.7484
    -6.6858  -5.6752  -5.6752  -5.0254  -5.0254  -4.9542  -4.9542  -4.6258
    -4.4109  -3.7340  -3.7340  -3.0426  -2.4427  -2.4427  -2.3282  -2.2466
    -2.1891  -2.1891  -2.0402  -2.0402  -2.0012  -1.9805  -1.9258  -1.9258

          k =-0.1498-0.0865 0.3111 ( 27195 PWs)   bands (ev):

   -20.7774 -20.3660 -20.3044 -20.2280 -20.2029 -20.1148 -19.9445 -19.8950
   -19.8297 -19.6563 -19.6067 -19.3505  -8.0451  -7.9592  -7.8762  -7.8211
    -7.7008  -7.6348  -7.3010  -7.1035  -7.0804  -6.9401  -6.7908  -6.7547
    -6.5214  -5.8361  -5.6875  -5.3987  -5.0516  -4.8889  -4.7487  -4.4997
    -4.4418  -3.7231  -3.6586  -3.1795  -2.5811  -2.4978  -2.3592  -2.2964
    -2.2314  -2.1868  -2.1419  -2.0756  -1.9976  -1.9590  -1.9132  -1.8606

          k = 0.2996 0.1730-0.6221 ( 27202 PWs)   bands (ev):

   -20.5542 -20.5451 -20.3492 -20.3211 -20.2038 -20.1941 -19.8821 -19.8648
   -19.6687 -19.6589 -19.5372 -19.5072  -8.0143  -7.9532  -7.8648  -7.8355
    -7.7105  -7.6402  -7.2440  -7.1060  -7.0569  -6.9509  -6.6942  -6.6937
    -6.2416  -6.0907  -5.7430  -5.5830  -5.0471  -4.9605  -4.7366  -4.5702
    -3.9879  -3.8815  -3.5928  -3.3564  -2.7062  -2.5247  -2.3884  -2.3606
    -2.2765  -2.2480  -2.1493  -2.0790  -2.0652  -1.9156  -1.8996  -1.8102

          k =-0.1498 0.0865 0.6221 ( 27194 PWs)   bands (ev):

   -20.5998 -20.4385 -20.4237 -20.2822 -20.2580 -20.1819 -19.8863 -19.7904
   -19.7480 -19.6100 -19.5889 -19.4788  -8.0235  -7.9291  -7.9087  -7.7940
    -7.7268  -7.6221  -7.2470  -7.1531  -7.0912  -6.8278  -6.7512  -6.6895
    -6.2482  -6.0153  -5.9044  -5.3928  -5.2007  -5.0040  -4.6565  -4.4347
    -4.2207  -3.6906  -3.6548  -3.3772  -2.6789  -2.5753  -2.3770  -2.3208
    -2.2840  -2.2304  -2.1783  -2.0854  -2.0501  -1.9253  -1.9058  -1.8029

          k = 0.2996 0.3460-0.3111 ( 27192 PWs)   bands (ev):

   -20.6634 -20.4781 -20.3434 -20.3264 -20.2184 -20.1433 -19.8876 -19.7721
   -19.7588 -19.6517 -19.5823 -19.4498  -8.0342  -8.0038  -7.8386  -7.8135
    -7.7448  -7.6390  -7.2918  -7.2221  -7.0811  -6.7921  -6.7590  -6.6749
    -6.3890  -6.0474  -5.7869  -5.4219  -5.3707  -4.8123  -4.6215  -4.3401
    -4.0946  -3.8569  -3.6415  -3.3443  -2.5704  -2.4940  -2.3956  -2.3178
    -2.2546  -2.1940  -2.1303  -2.1147  -2.0177  -1.9765  -1.9068  -1.7868

          k = 0.1498 0.2595 0.0000 ( 27214 PWs)   bands (ev):

   -20.8019 -20.4110 -20.3437 -20.1865 -20.1549 -20.0594 -19.9695 -19.8836
   -19.8379 -19.6619 -19.6183 -19.3362  -8.0880  -7.9753  -7.8655  -7.8104
    -7.6784  -7.6701  -7.3738  -7.2094  -7.0008  -6.9055  -6.8221  -6.6904
    -6.6782  -5.8099  -5.6631  -5.3945  -5.2770  -4.7582  -4.6082  -4.4859
    -4.2793  -3.8080  -3.7157  -3.1302  -2.4459  -2.4197  -2.3728  -2.2812
    -2.2360  -2.2045  -2.0699  -2.0521  -2.0133  -2.0009  -1.8826  -1.8652

          k = 0.2996-0.1730-1.2442 ( 27186 PWs)   bands (ev):

   -20.6521 -20.6050 -20.3639 -20.2423 -20.1568 -20.0823 -19.9067 -19.8591
   -19.7315 -19.7018 -19.4916 -19.4712  -8.0664  -8.0213  -7.8704  -7.8331
    -7.6563  -7.6437  -7.3790  -7.2944  -6.9891  -6.9307  -6.7276  -6.6743
    -6.2988  -6.2588  -5.7435  -5.5170  -5.1778  -4.8837  -4.4653  -4.2059
    -4.0863  -4.0420  -3.5541  -3.3527  -2.4677  -2.4063  -2.3808  -2.3220
    -2.2408  -2.1636  -2.1495  -2.0617  -2.0534  -1.9952  -1.8412  -1.8280

          k = 0.0000 0.0000 0.9332 ( 27174 PWs)   bands (ev):

   -20.5370 -20.5370 -20.4439 -20.3831 -20.1723 -20.1723 -19.7999 -19.7999
   -19.6642 -19.6044 -19.5809 -19.5809  -8.0054  -8.0054  -7.8520  -7.7469
    -7.7424  -7.7424  -7.3014  -7.1871  -7.1871  -6.6869  -6.6869  -6.6427
    -6.1627  -6.1627  -6.1574  -5.4462  -5.1008  -5.1008  -4.3886  -4.1961
    -4.1961  -3.7119  -3.7119  -3.5450  -2.5047  -2.5047  -2.3692  -2.2906
    -2.2243  -2.2243  -2.1540  -2.0884  -2.0884  -1.9600  -1.9600  -1.7594

          k = 0.4494 0.2595 0.0000 ( 27175 PWs)   bands (ev):

   -20.6858 -20.4903 -20.4802 -20.2433 -20.0925 -20.0735 -19.9227 -19.9110
   -19.7323 -19.6183 -19.5770 -19.4372  -8.0580  -8.0115  -7.9324  -7.7630
    -7.6973  -7.6307  -7.3960  -7.2374  -7.0955  -6.8132  -6.7506  -6.7014
    -6.4201  -6.0042  -5.9199  -5.4675  -5.1819  -4.8824  -4.3963  -4.3565
    -4.1323  -3.8220  -3.6785  -3.3248  -2.4450  -2.4366  -2.3660  -2.3273
    -2.2550  -2.1862  -2.1104  -2.0839  -2.0214  -1.9690  -1.9011  -1.8064

          k = 0.2996 0.1730 0.3111 ( 27192 PWs)   bands (ev):

   -20.7186 -20.4215 -20.3161 -20.3027 -20.2010 -20.1324 -19.9050 -19.8746
   -19.7850 -19.6451 -19.5781 -19.3950  -8.0553  -7.9923  -7.9018  -7.7604
    -7.7454  -7.5769  -7.3321  -7.1825  -6.9849  -6.9031  -6.8474  -6.7339
    -6.4192  -5.8344  -5.6448  -5.5570  -5.3211  -4.9207  -4.5999  -4.3801
    -4.2270  -3.7862  -3.6557  -3.2191  -2.5913  -2.5118  -2.4213  -2.3652
    -2.2505  -2.2047  -2.1172  -2.0778  -1.9816  -1.9383  -1.8705  -1.8546

          k = 0.4494-0.2595-0.9332 ( 27166 PWs)   bands (ev):

   -20.5675 -20.5596 -20.4012 -20.3260 -20.1861 -20.0989 -19.9506 -19.8538
   -19.6833 -19.6235 -19.5613 -19.4624  -8.0859  -7.9766  -7.9326  -7.7636
    -7.7119  -7.5577  -7.3866  -7.1438  -7.0071  -6.9454  -6.7770  -6.7393
    -6.1212  -6.0820  -5.7265  -5.5751  -5.3705  -5.0185  -4.5509  -4.2506
    -3.9394  -3.8762  -3.6952  -3.2977  -2.5848  -2.5350  -2.4925  -2.3666
    -2.3262  -2.2240  -2.0586  -2.0336  -1.9945  -1.9521  -1.8731  -1.8139

          k = 0.2996-0.3460-0.6221 ( 27150 PWs)   bands (ev):

   -20.5145 -20.4993 -20.3860 -20.3676 -20.2258 -20.2217 -19.8607 -19.8488
   -19.6715 -19.6599 -19.5317 -19.4978  -8.0998  -7.8827  -7.8509  -7.8273
    -7.7870  -7.5597  -7.2775  -7.1568  -6.9765  -6.9288  -6.7495  -6.7438
    -6.0831  -5.9488  -5.7667  -5.6376  -5.2829  -5.2433  -4.4618  -4.3857
    -3.9448  -3.9023  -3.6902  -3.2799  -2.7391  -2.5533  -2.4883  -2.4109
    -2.3448  -2.1881  -2.1111  -2.0657  -2.0367  -1.9019  -1.8817  -1.7925

          k = 0.0000 0.0000-1.8663 ( 27162 PWs)   bands (ev):

   -20.4739 -20.4378 -20.3478 -20.3478 -20.3406 -20.3406 -19.7751 -19.7751
   -19.7243 -19.7243 -19.5134 -19.4831  -8.1532  -7.8368  -7.8368  -7.8202
    -7.8202  -7.5296  -7.3315  -7.1581  -6.8698  -6.8698  -6.8382  -6.8382
    -5.8816  -5.7132  -5.6425  -5.6425  -5.6216  -5.6216  -4.2188  -4.2188
    -3.9923  -3.9923  -3.6972  -3.2264  -2.7732  -2.5586  -2.5586  -2.4567
    -2.4567  -2.1245  -2.1085  -1.9895  -1.9895  -1.9171  -1.9171  -1.7636

          k = 0.2996-0.3460 0.3111 ( 27192 PWs)   bands (ev):

   -20.6636 -20.4753 -20.3597 -20.3145 -20.2145 -20.1437 -19.8902 -19.7907
   -19.7285 -19.6705 -19.5717 -19.4524  -8.0503  -7.9687  -7.8778  -7.8032
    -7.7213  -7.6444  -7.3465  -7.1858  -7.0557  -6.8351  -6.7182  -6.6980
    -6.3779  -5.9737  -5.8939  -5.4671  -5.2231  -4.8824  -4.7063  -4.2388
    -4.0657  -3.8468  -3.7246  -3.3164  -2.5805  -2.4600  -2.4123  -2.3150
    -2.2645  -2.1987  -2.1339  -2.1125  -2.0371  -1.9415  -1.9072  -1.7964

     highest occupied level (ev):    -1.7594

!    total energy              =    -413.83307400 Ry
     estimated scf accuracy    <       0.00000001 Ry

     The total energy is the sum of the following terms:
     one-electron contribution =    -280.66358322 Ry
     hartree contribution      =     176.21970077 Ry
     xc contribution           =    -102.03878809 Ry
     ewald contribution        =    -207.35040346 Ry

     convergence has been achieved in  12 iterations

     Forces acting on atoms (cartesian axes, Ry/au):

     atom    1 type  2   force =    -0.01744589    0.01734155   -0.00105211
     atom    2 type  2   force =     0.01744589   -0.01734155    0.00105211
     atom    3 type  2   force =    -0.00629528   -0.02377936   -0.00105211
     atom    4 type  2   force =     0.00629528    0.02377936    0.00105211
     atom    5 type  2   force =     0.02374117    0.00643781   -0.00105211
     atom    6 type  2   force =    -0.02374117   -0.00643781    0.00105211
     atom    7 type  2   force =     0.00707394   -0.00158413    0.00240369
     atom    8 type  2   force =    -0.00707394    0.00158413   -0.00240369
     atom    9 type  2   force =    -0.00216508    0.00691827    0.00240369
     atom   10 type  2   force =     0.00216508   -0.00691827   -0.00240369
     atom   11 type  2   force =    -0.00490886   -0.00533415    0.00240369
     atom   12 type  2   force =     0.00490886    0.00533415   -0.00240369
     atom   13 type  1   force =    -0.01438700    0.01119523   -0.06637696
     atom   14 type  1   force =     0.01438700   -0.01119523    0.06637696
     atom   15 type  1   force =    -0.00250186   -0.01805713   -0.06637696
     atom   16 type  1   force =     0.00250186    0.01805713    0.06637696
     atom   17 type  1   force =     0.01688886    0.00686189   -0.06637696
     atom   18 type  1   force =    -0.01688886   -0.00686189    0.06637696
     atom   19 type  1   force =     0.03169615   -0.03610425    0.05566724
     atom   20 type  1   force =    -0.03169615    0.03610425   -0.05566724
     atom   21 type  1   force =     0.01541913    0.04550180    0.05566724
     atom   22 type  1   force =    -0.01541913   -0.04550180   -0.05566724
     atom   23 type  1   force =    -0.04711527   -0.00939754    0.05566724
     atom   24 type  1   force =     0.04711527    0.00939754   -0.05566724
     atom   25 type  1   force =    -0.00080110    0.04210581    0.01025392
     atom   26 type  1   force =     0.00080110   -0.04210581   -0.01025392
     atom   27 type  1   force =    -0.03606415   -0.02174667    0.01025392
     atom   28 type  1   force =     0.03606415    0.02174667   -0.01025392
     atom   29 type  1   force =     0.03686525   -0.02035913    0.01025392
     atom   30 type  1   force =    -0.03686525    0.02035913   -0.01025392
     atom   31 type  1   force =     0.00096468   -0.03470220   -0.00691228
     atom   32 type  1   force =    -0.00096468    0.03470220    0.00691228
     atom   33 type  1   force =     0.02957065    0.01818654   -0.00691228
     atom   34 type  1   force =    -0.02957065   -0.01818654    0.00691228
     atom   35 type  1   force =    -0.03053533    0.01651566   -0.00691228
     atom   36 type  1   force =     0.03053533   -0.01651566    0.00691228

     Total force =     0.289220     Total SCF correction =     0.000119


     Computing stress (Cartesian axis) and pressure

          total   stress  (Ry/bohr**3)                   (kbar)     P=       51.53
   0.00027803  -0.00000000  -0.00000000           40.90       -0.00       -0.00
   0.00000000   0.00027803   0.00000000            0.00       40.90        0.00
   0.00000000   0.00000000   0.00049489            0.00        0.00       72.80


     Writing all to output data dir ./iceII/iceII.save/ :
     XML data file, charge density, pseudopotentials, collected wavefunctions

     init_run     :      0.88s CPU      0.95s WALL (       1 calls)
     electrons    :     10.52s CPU     10.70s WALL (       1 calls)
     forces       :      0.11s CPU      0.12s WALL (       1 calls)
     stress       :      0.79s CPU      0.80s WALL (       1 calls)

     Called by init_run:
     wfcinit      :      0.32s CPU      0.34s WALL (       1 calls)
     potinit      :      0.02s CPU      0.04s WALL (       1 calls)
     hinit0       :      0.40s CPU      0.41s WALL (       1 calls)

     Called by electrons:
     c_bands      :      8.99s CPU      9.07s WALL (      12 calls)
     sum_band     :      1.19s CPU      1.21s WALL (      12 calls)
     v_of_rho     :      0.23s CPU      0.26s WALL (      13 calls)
     newd         :      0.04s CPU      0.05s WALL (      13 calls)
     mix_rho      :      0.03s CPU      0.04s WALL (      12 calls)

     Called by c_bands:
     init_us_2    :      0.13s CPU      0.14s WALL (     108 calls)
     cegterg      :      8.66s CPU      8.73s WALL (      48 calls)

     Called by *egterg:
     cdiaghg      :      0.75s CPU      0.75s WALL (     196 calls)
     h_psi        :      6.79s CPU      6.84s WALL (     200 calls)
     s_psi        :      0.27s CPU      0.27s WALL (     200 calls)
     g_psi        :      0.02s CPU      0.02s WALL (     148 calls)

     Called by h_psi:
     h_psi:calbec :      0.48s CPU      0.49s WALL (     200 calls)
     vloc_psi     :      5.98s CPU      6.02s WALL (     200 calls)
     add_vuspsi   :      0.28s CPU      0.29s WALL (     200 calls)

     General routines
     calbec       :      0.64s CPU      0.64s WALL (     268 calls)
     fft          :      0.50s CPU      0.50s WALL (     151 calls)
     ffts         :      0.01s CPU      0.01s WALL (      12 calls)
     fftw         :      6.20s CPU      6.24s WALL (   17334 calls)

     Parallel routines

     PWSCF        :     12.57s CPU     13.18s WALL


   This run was terminated on:  18:39:21  21Mar2026            

=------------------------------------------------------------------------------=
   JOB DONE.
=------------------------------------------------------------------------------=
