
     Program PWSCF v.7.3.1 starts on 23Mar2026 at 17:54:35 

     This program is part of the open-source Quantum ESPRESSO suite
     for quantum simulation of materials; please cite
         "P. Giannozzi et al., J. Phys.:Condens. Matter 21 395502 (2009);
         "P. Giannozzi et al., J. Phys.:Condens. Matter 29 465901 (2017);
         "P. Giannozzi et al., J. Chem. Phys. 152 154105 (2020);
          URL http://www.quantum-espresso.org", 
     in publications or presentations arising from this work. More details at
     http://www.quantum-espresso.org/quote

     Parallel version (MPI), running on   128 processors

     MPI processes distributed on     1 nodes
     242959 MiB available memory on the printing compute node when the environment starts

     Waiting for input...
     Reading input from standard input

     Current dimensions of program PWSCF are:
     Max number of different atomic species (ntypx) = 10
     Max number of k-points (npk) =  40000
     Max angular momentum in pseudopotentials (lmaxx) =  4

     K-points division:     npool     =       4
     R & G space division:  proc/nbgrp/npool/nimage =      32
     Subspace diagonalization in iterative solution of the eigenvalue problem:
     a serial algorithm will be used


     Parallelization info
     --------------------
     sticks:   dense  smooth     PW     G-vecs:    dense   smooth      PW
     Min         169     169     50                 6882     6882    1101
     Max         170     170     51                 6885     6885    1103
     Sum        5435    5435   1603               220271   220271   35275

     Using Slab Decomposition



     bravais-lattice index     =            5
     lattice parameter (alat)  =      14.3492  a.u.
     unit-cell volume          =    1908.8735 (a.u.)^3
     number of atoms/cell      =           36
     number of atomic types    =            2
     number of electrons       =        96.00
     number of Kohn-Sham states=           48
     kinetic-energy cutoff     =      90.0000  Ry
     charge density cutoff     =     360.0000  Ry
     scf convergence threshold =      1.0E-07
     mixing beta               =       0.7000
     number of iterations used =            8  plain     mixing
     Exchange-correlation=  SLA  PW   PBE  PBE
                           (   1   4   3   4   0   0   0)

     celldm(1)=  14.349219  celldm(2)=   0.000000  celldm(3)=   0.000000
     celldm(4)=  -0.392337  celldm(5)=   0.000000  celldm(6)=   0.000000

     crystal axes: (cart. coord. in units of alat)
               a(1) = (   0.834367  -0.481722   0.267909 )  
               a(2) = (   0.000000   0.963444   0.267909 )  
               a(3) = (  -0.834367  -0.481722   0.267909 )  

     reciprocal axes: (cart. coord. in units 2 pi/alat)
               b(1) = (  0.599257 -0.345981  1.244203 )  
               b(2) = ( -0.000000  0.691962  1.244203 )  
               b(3) = ( -0.599257 -0.345981  1.244203 )  


     PseudoPot. # 1 for H  read from file:
     ./H.pbe-van_ak.UPF
     MD5 check sum: 077eb6d537518a38cb46c6de387227b7
     Pseudo is Ultrasoft, Zval =  1.0
     Generated by new atomic code, or converted to UPF format
     Using radial grid of  615 points,  1 beta functions with: 
                l(1) =   0
     Q(r) pseudized with  8 coefficients,  rinner =    0.800

     PseudoPot. # 2 for O  read from file:
     ./O.pbe-van_ak.UPF
     MD5 check sum: 78c19812648e8988a0fe644b0f25305e
     Pseudo is Ultrasoft, Zval =  6.0
     Generated by new atomic code, or converted to UPF format
     Using radial grid of  737 points,  4 beta functions with: 
                l(1) =   0
                l(2) =   0
                l(3) =   1
                l(4) =   1
     Q(r) pseudized with  8 coefficients,  rinner =    0.800   0.800   0.800


     atomic species   valence    mass     pseudopotential
     H                 1.00     1.00800     H ( 1.00)
     O                 6.00    16.00000     O ( 1.00)

      6 Sym. Ops., with inversion, found



   Cartesian axes

     site n.     atom                  positions (alat units)
         1        O      tau(   1) = (  -0.4910119  -0.5205722   0.3052394  )
         2        O      tau(   2) = (   0.4910119   0.5205722   0.4984877  )
         3        O      tau(   3) = (   0.6963347  -0.1649427   0.3052394  )
         4        O      tau(   4) = (  -0.6963347   0.1649427   0.4984877  )
         5        O      tau(   5) = (  -0.2053228   0.6855149   0.3052394  )
         6        O      tau(   6) = (   0.2053228  -0.6855149   0.4984877  )
         7        O      tau(   7) = (   0.1229870   0.3303028   0.4196306  )
         8        O      tau(   8) = (  -0.1229870  -0.3303028   0.3840965  )
         9        O      tau(   9) = (  -0.3475441  -0.0586415   0.4196306  )
        10        O      tau(  10) = (   0.3475441   0.0586415   0.3840965  )
        11        O      tau(  11) = (   0.2245571  -0.2716613   0.4196306  )
        12        O      tau(  12) = (  -0.2245571   0.2716612   0.3840965  )
        13        H      tau(  13) = (  -0.5446961  -0.4126715   0.2597134  )
        14        H      tau(  14) = (   0.5446961   0.4126715   0.5440137  )
        15        H      tau(  15) = (   0.6297321  -0.2653849   0.2597134  )
        16        H      tau(  16) = (  -0.6297321   0.2653849   0.5440137  )
        17        H      tau(  17) = (  -0.0850360   0.6780564   0.2597134  )
        18        H      tau(  18) = (   0.0850360  -0.6780564   0.5440137  )
        19        H      tau(  19) = (  -0.4726389  -0.4926041   0.4288765  )
        20        H      tau(  20) = (   0.4726389   0.4926042   0.3748506  )
        21        H      tau(  21) = (   0.6629272  -0.1630152   0.4288765  )
        22        H      tau(  22) = (  -0.6629272   0.1630152   0.3748506  )
        23        H      tau(  23) = (  -0.1902883   0.6556194   0.4288765  )
        24        H      tau(  24) = (   0.1902883  -0.6556194   0.3748506  )
        25        H      tau(  25) = (   0.2676988  -0.1507235   0.4151121  )
        26        H      tau(  26) = (  -0.2676988   0.1507234   0.3886151  )
        27        H      tau(  27) = (  -0.0033191   0.3071957   0.4151121  )
        28        H      tau(  28) = (   0.0033191  -0.3071957   0.3886151  )
        29        H      tau(  29) = (  -0.2643797  -0.1564722   0.4151121  )
        30        H      tau(  30) = (   0.2643797   0.1564723   0.3886151  )
        31        H      tau(  31) = (   0.3102941  -0.3416444   0.3555952  )
        32        H      tau(  32) = (  -0.3102941   0.3416444   0.4481319  )
        33        H      tau(  33) = (   0.1407257   0.4395448   0.3555952  )
        34        H      tau(  34) = (  -0.1407257  -0.4395448   0.4481319  )
        35        H      tau(  35) = (  -0.4510198  -0.0979003   0.3555952  )
        36        H      tau(  36) = (   0.4510198   0.0979003   0.4481319  )

     number of k points=    14
                       cart. coord. in units 2pi/alat
        k(    1) = (   0.0000000   0.0000000   0.0000000), wk =   0.0312500
        k(    2) = (  -0.1498141  -0.0864952   0.3110508), wk =   0.1875000
        k(    3) = (   0.2996283   0.1729905  -0.6221017), wk =   0.0937500
        k(    4) = (  -0.1498141   0.0864952   0.6221017), wk =   0.1875000
        k(    5) = (   0.2996283   0.3459809  -0.3110508), wk =   0.1875000
        k(    6) = (   0.1498141   0.2594857   0.0000000), wk =   0.1875000
        k(    7) = (   0.2996283  -0.1729905  -1.2442034), wk =   0.0937500
        k(    8) = (   0.0000000   0.0000000   0.9331525), wk =   0.0625000
        k(    9) = (   0.4494424   0.2594857   0.0000000), wk =   0.1875000
        k(   10) = (   0.2996283   0.1729905   0.3110508), wk =   0.1875000
        k(   11) = (   0.4494424  -0.2594857  -0.9331525), wk =   0.1875000
        k(   12) = (   0.2996283  -0.3459809  -0.6221017), wk =   0.1875000
        k(   13) = (   0.0000000   0.0000000  -1.8663050), wk =   0.0312500
        k(   14) = (   0.2996283  -0.3459809   0.3110508), wk =   0.1875000

     Dense  grid:   220271 G-vectors     FFT dimensions: (  90,  90,  90)

     Estimated max dynamical RAM per process >      14.62 MB

     Estimated total dynamical RAM >       1.67 GB

     Initial potential from superposition of free atoms

     starting charge      95.9998, renormalised to      96.0000
     Starting wfcs are   72 randomized atomic wfcs

     total cpu time spent up to now is        1.2 secs

     per-process dynamical memory:    19.0 Mb

     Self-consistent Calculation

     iteration #  1     ecut=    90.00 Ry     beta= 0.70
     Davidson diagonalization with overlap
     ethr =  1.00E-02,  avg # of iterations =  2.0

     total cpu time spent up to now is        2.0 secs

     total energy              =    -412.30194243 Ry
     estimated scf accuracy    <       4.04614493 Ry

     iteration #  2     ecut=    90.00 Ry     beta= 0.70
     Davidson diagonalization with overlap
     ethr =  4.21E-03,  avg # of iterations =  3.0

     total cpu time spent up to now is        2.9 secs

     total energy              =    -413.59360793 Ry
     estimated scf accuracy    <       2.16152538 Ry

     iteration #  3     ecut=    90.00 Ry     beta= 0.70
     Davidson diagonalization with overlap
     ethr =  2.25E-03,  avg # of iterations =  2.0

     total cpu time spent up to now is        3.7 secs

     total energy              =    -413.86958202 Ry
     estimated scf accuracy    <       0.08536025 Ry

     iteration #  4     ecut=    90.00 Ry     beta= 0.70
     Davidson diagonalization with overlap
     ethr =  8.89E-05,  avg # of iterations =  4.0

     total cpu time spent up to now is        4.8 secs

     total energy              =    -413.93395047 Ry
     estimated scf accuracy    <       0.10620057 Ry

     iteration #  5     ecut=    90.00 Ry     beta= 0.70
     Davidson diagonalization with overlap
     ethr =  8.89E-05,  avg # of iterations =  2.0

     total cpu time spent up to now is        5.5 secs

     total energy              =    -413.93865503 Ry
     estimated scf accuracy    <       0.01492286 Ry

     iteration #  6     ecut=    90.00 Ry     beta= 0.70
     Davidson diagonalization with overlap
     ethr =  1.55E-05,  avg # of iterations =  2.0

     total cpu time spent up to now is        6.2 secs

     total energy              =    -413.93822155 Ry
     estimated scf accuracy    <       0.00408918 Ry

     iteration #  7     ecut=    90.00 Ry     beta= 0.70
     Davidson diagonalization with overlap
     ethr =  4.26E-06,  avg # of iterations =  2.4

     total cpu time spent up to now is        7.1 secs

     total energy              =    -413.94024270 Ry
     estimated scf accuracy    <       0.00041143 Ry

     iteration #  8     ecut=    90.00 Ry     beta= 0.70
     Davidson diagonalization with overlap
     ethr =  4.29E-07,  avg # of iterations =  2.3

     total cpu time spent up to now is        7.9 secs

     total energy              =    -413.93996239 Ry
     estimated scf accuracy    <       0.00086451 Ry

     iteration #  9     ecut=    90.00 Ry     beta= 0.70
     Davidson diagonalization with overlap
     ethr =  4.29E-07,  avg # of iterations =  2.0

     total cpu time spent up to now is        8.7 secs

     total energy              =    -413.93998121 Ry
     estimated scf accuracy    <       0.00014109 Ry

     iteration # 10     ecut=    90.00 Ry     beta= 0.70
     Davidson diagonalization with overlap
     ethr =  1.47E-07,  avg # of iterations =  2.0

     total cpu time spent up to now is        9.5 secs

     total energy              =    -413.94000017 Ry
     estimated scf accuracy    <       0.00001815 Ry

     iteration # 11     ecut=    90.00 Ry     beta= 0.70
     Davidson diagonalization with overlap
     ethr =  1.89E-08,  avg # of iterations =  2.1

     total cpu time spent up to now is       10.3 secs

     total energy              =    -413.94000191 Ry
     estimated scf accuracy    <       0.00000399 Ry

     iteration # 12     ecut=    90.00 Ry     beta= 0.70
     Davidson diagonalization with overlap
     ethr =  4.15E-09,  avg # of iterations =  3.0

     total cpu time spent up to now is       11.2 secs

     End of self-consistent calculation

          k = 0.0000 0.0000 0.0000 ( 27563 PWs)   bands (ev):

   -20.8369 -20.3126 -20.3126 -20.0712 -20.0712 -20.0540 -20.0088 -20.0088
   -19.9781 -19.6562 -19.6562 -19.2928  -8.3154  -8.1844  -8.1724  -8.1724
    -8.0713  -8.0713  -7.7411  -7.7411  -7.7317  -7.7313  -7.7313  -7.6720
    -6.5856  -5.3846  -5.3846  -4.7994  -4.7994  -4.5278  -4.5278  -4.4578
    -4.2286  -3.5399  -3.5399  -2.7812  -2.4950  -2.4950  -2.3961  -2.2836
    -2.2836  -2.2212  -2.1384  -2.1379  -2.1379  -2.0217  -1.9906  -1.9906

          k =-0.1498-0.0865 0.3111 ( 27517 PWs)   bands (ev):

   -20.7548 -20.3512 -20.2998 -20.2315 -20.1905 -20.1120 -19.9609 -19.8971
   -19.8278 -19.6667 -19.6189 -19.3584  -8.2766  -8.2145  -8.1796  -8.1551
    -8.0685  -8.0250  -7.8237  -7.7802  -7.7453  -7.6834  -7.6399  -7.6117
    -6.3808  -5.5648  -5.4108  -5.0993  -4.9042  -4.6322  -4.3452  -4.2569
    -4.0537  -3.5439  -3.4689  -2.9285  -2.5864  -2.5232  -2.4206  -2.3637
    -2.3377  -2.2682  -2.1863  -2.1269  -2.0863  -2.0532  -1.9947  -1.9804

          k = 0.2996 0.1730-0.6221 ( 27568 PWs)   bands (ev):

   -20.5549 -20.5243 -20.3284 -20.2989 -20.2110 -20.1802 -19.9060 -19.8617
   -19.7200 -19.6492 -19.5509 -19.4941  -8.2331  -8.2216  -8.1763  -8.1581
    -8.0782  -8.0024  -7.8279  -7.7984  -7.7534  -7.6958  -7.5664  -7.5489
    -5.9862  -5.8560  -5.4391  -5.4006  -4.8812  -4.8325  -4.1957  -4.1413
    -3.6664  -3.6442  -3.4438  -3.1792  -2.6620  -2.5481  -2.4411  -2.4380
    -2.3667  -2.2607  -2.2463  -2.1613  -2.1309  -2.0420  -1.9624  -1.9605

          k =-0.1498 0.0865 0.6221 ( 27522 PWs)   bands (ev):

   -20.5921 -20.4208 -20.4081 -20.2736 -20.2480 -20.1698 -19.9034 -19.8080
   -19.7595 -19.6263 -19.5996 -19.4703  -8.2316  -8.2087  -8.1929  -8.1690
    -8.0642  -7.9924  -7.8249  -7.8041  -7.7973  -7.6279  -7.5909  -7.5573
    -6.0233  -5.7142  -5.6631  -5.1880  -5.0221  -4.8154  -4.2238  -3.9667
    -3.8767  -3.5338  -3.4392  -3.2086  -2.6515  -2.5722  -2.4442  -2.3984
    -2.3353  -2.3094  -2.2519  -2.1440  -2.1294  -2.0511  -1.9841  -1.9379

          k = 0.2996 0.3460-0.3111 ( 27534 PWs)   bands (ev):

   -20.6423 -20.4555 -20.3740 -20.2990 -20.2037 -20.1253 -19.9235 -19.8100
   -19.7134 -19.6906 -19.5750 -19.4562  -8.2433  -8.2345  -8.1570  -8.1411
    -8.0742  -8.0141  -7.9033  -7.8719  -7.8021  -7.6312  -7.6146  -7.5584
    -6.0734  -5.7027  -5.4856  -5.2234  -5.1954  -4.6055  -4.1693  -4.0235
    -3.8917  -3.5850  -3.4371  -3.1320  -2.5766  -2.5209  -2.4547  -2.3795
    -2.3326  -2.2504  -2.2178  -2.1909  -2.1050  -2.0938  -1.9611  -1.9041

          k = 0.1498 0.2595 0.0000 ( 27524 PWs)   bands (ev):

   -20.7754 -20.3983 -20.3344 -20.2021 -20.1415 -20.0612 -19.9787 -19.9035
   -19.8235 -19.6665 -19.6246 -19.3487  -8.2899  -8.2107  -8.1747  -8.1418
    -8.0643  -8.0517  -7.8955  -7.8357  -7.7620  -7.6834  -7.6590  -7.6205
    -6.3871  -5.4511  -5.3780  -5.1242  -5.0850  -4.4604  -4.3153  -4.1739
    -4.0939  -3.5718  -3.5320  -2.8695  -2.4950  -2.4717  -2.4409  -2.3431
    -2.2935  -2.2538  -2.1825  -2.1622  -2.1089  -2.0553  -1.9529  -1.9361

          k = 0.2996-0.1730-1.2442 ( 27530 PWs)   bands (ev):

   -20.6234 -20.5899 -20.3508 -20.2605 -20.1364 -20.0952 -19.8988 -19.8987
   -19.7160 -19.7032 -19.5129 -19.4717  -8.2553  -8.2236  -8.1596  -8.1359
    -8.0426  -8.0412  -7.9892  -7.9015  -7.7878  -7.6758  -7.6412  -7.5855
    -5.9153  -5.8915  -5.4220  -5.3463  -4.9881  -4.5966  -4.1284  -4.0594
    -3.8516  -3.7040  -3.3386  -3.1268  -2.5009  -2.4642  -2.4356  -2.3820
    -2.3077  -2.2487  -2.2337  -2.1590  -2.1422  -2.0693  -1.9134  -1.9031

          k = 0.0000 0.0000 0.9332 ( 27531 PWs)   bands (ev):

   -20.5110 -20.5110 -20.4572 -20.3794 -20.1562 -20.1562 -19.8318 -19.8318
   -19.6800 -19.5922 -19.5922 -19.5694  -8.2304  -8.2304  -8.1740  -8.1242
    -8.0634  -8.0634  -7.9382  -7.8542  -7.8542  -7.5776  -7.5776  -7.5406
    -5.7929  -5.7929  -5.7188  -5.3898  -4.9252  -4.9252  -3.9179  -3.9179
    -3.7909  -3.5122  -3.5122  -3.3833  -2.5263  -2.5263  -2.4170  -2.3834
    -2.3022  -2.3022  -2.2229  -2.1714  -2.1714  -2.0330  -2.0330  -1.8745

          k = 0.4494 0.2595 0.0000 ( 27550 PWs)   bands (ev):

   -20.6611 -20.4689 -20.4673 -20.2617 -20.0927 -20.0630 -19.9495 -19.9109
   -19.7227 -19.6318 -19.5820 -19.4460  -8.2518  -8.2149  -8.1872  -8.1037
    -8.0794  -8.0116  -8.0039  -7.8764  -7.8270  -7.6547  -7.6207  -7.6065
    -6.0536  -5.5973  -5.5503  -5.4062  -4.9459  -4.5936  -4.2005  -4.0866
    -3.7677  -3.5916  -3.4860  -3.0887  -2.4833  -2.4664  -2.4494  -2.3769
    -2.3276  -2.2635  -2.2180  -2.1867  -2.0985  -2.0425  -1.9698  -1.8786

          k = 0.2996 0.1730 0.3111 ( 27516 PWs)   bands (ev):

   -20.6971 -20.4040 -20.3171 -20.2961 -20.1954 -20.1253 -19.9245 -19.8776
   -19.7832 -19.6609 -19.5863 -19.4011  -8.2571  -8.2183  -8.1828  -8.1166
    -8.0808  -7.9914  -7.9039  -7.7802  -7.7502  -7.7280  -7.6642  -7.5898
    -6.2050  -5.5543  -5.4897  -5.1522  -5.0968  -4.6101  -4.2565  -4.0916
    -4.0455  -3.5287  -3.4548  -2.9872  -2.6069  -2.5095  -2.4612  -2.4224
    -2.3516  -2.2629  -2.1935  -2.1663  -2.0880  -2.0534  -1.9715  -1.9202

          k = 0.4494-0.2595-0.9332 ( 27508 PWs)   bands (ev):

   -20.5461 -20.5443 -20.3859 -20.3291 -20.1852 -20.0922 -19.9633 -19.8499
   -19.6968 -19.6375 -19.5787 -19.4583  -8.2348  -8.2100  -8.1831  -8.1008
    -8.0668  -7.9794  -7.9422  -7.8498  -7.7729  -7.7284  -7.6483  -7.6016
    -5.8918  -5.7211  -5.5374  -5.3440  -5.0491  -4.6014  -4.3443  -4.0364
    -3.7563  -3.5179  -3.4804  -3.0971  -2.6056  -2.5281  -2.4884  -2.4289
    -2.3953  -2.2944  -2.1861  -2.1480  -2.0920  -2.0601  -1.9691  -1.8726

          k = 0.2996-0.3460-0.6221 ( 27510 PWs)   bands (ev):

   -20.5141 -20.4809 -20.3674 -20.3606 -20.2152 -20.2039 -19.8812 -19.8599
   -19.6868 -19.6643 -19.5699 -19.4744  -8.2396  -8.1852  -8.1587  -8.1394
    -8.1063  -7.9505  -7.8614  -7.8303  -7.7472  -7.7062  -7.6081  -7.5964
    -5.8372  -5.8011  -5.4858  -5.4239  -4.9417  -4.8958  -4.1450  -4.0642
    -3.7168  -3.6875  -3.3762  -3.1648  -2.6797  -2.5479  -2.4972  -2.4795
    -2.3854  -2.3081  -2.1784  -2.1518  -2.1357  -2.0341  -2.0111  -1.8731

          k = 0.0000 0.0000-1.8663 ( 27414 PWs)   bands (ev):

   -20.4627 -20.4263 -20.3660 -20.3660 -20.2992 -20.2992 -19.7910 -19.7910
   -19.7275 -19.7275 -19.5686 -19.4525  -8.2406  -8.1363  -8.1363  -8.1270
    -8.1270  -7.9263  -7.8938  -7.8478  -7.7180  -7.7180  -7.6610  -7.6610
    -5.8353  -5.6681  -5.2950  -5.2950  -5.1775  -5.1775  -3.9021  -3.9021
    -3.8481  -3.8481  -3.3236  -3.1444  -2.6520  -2.5403  -2.5403  -2.5261
    -2.5261  -2.2653  -2.1489  -2.0873  -2.0873  -2.0739  -2.0739  -1.8238

          k = 0.2996-0.3460 0.3111 ( 27534 PWs)   bands (ev):

   -20.6417 -20.4626 -20.3512 -20.3178 -20.2011 -20.1263 -19.9185 -19.8007
   -19.7610 -19.6373 -19.5950 -19.4552  -8.2529  -8.2161  -8.1707  -8.1181
    -8.0919  -8.0177  -7.9195  -7.8551  -7.7988  -7.6316  -7.6072  -7.5662
    -6.0780  -5.6779  -5.5405  -5.1934  -5.1455  -4.6723  -4.2544  -3.9074
    -3.7995  -3.6414  -3.5145  -3.0992  -2.5883  -2.4889  -2.4599  -2.3816
    -2.3376  -2.2585  -2.2161  -2.1972  -2.1372  -2.0499  -1.9666  -1.9061

     highest occupied level (ev):    -1.8238

!    total energy              =    -413.94000327 Ry
     estimated scf accuracy    <          5.4E-09 Ry

     The total energy is the sum of the following terms:
     one-electron contribution =    -281.60979595 Ry
     hartree contribution      =     176.49149920 Ry
     xc contribution           =    -102.18102543 Ry
     ewald contribution        =    -206.64068108 Ry

     convergence has been achieved in  12 iterations

     Forces acting on atoms (cartesian axes, Ry/au):

     atom    1 type  2   force =     0.01116095   -0.03960413   -0.02369198
     atom    2 type  2   force =    -0.01116095    0.03960413    0.02369198
     atom    3 type  2   force =     0.02871771    0.02946773   -0.02369198
     atom    4 type  2   force =    -0.02871771   -0.02946773    0.02369198
     atom    5 type  2   force =    -0.03987865    0.01013640   -0.02369198
     atom    6 type  2   force =     0.03987865   -0.01013640    0.02369198
     atom    7 type  2   force =     0.03186984   -0.02453218    0.01997379
     atom    8 type  2   force =    -0.03186984    0.02453218   -0.01997379
     atom    9 type  2   force =     0.00531057    0.03986618    0.01997379
     atom   10 type  2   force =    -0.00531057   -0.03986618   -0.01997379
     atom   11 type  2   force =    -0.03718041   -0.01533400    0.01997379
     atom   12 type  2   force =     0.03718041    0.01533400   -0.01997379
     atom   13 type  1   force =    -0.01632274    0.03212786   -0.01575270
     atom   14 type  1   force =     0.01632274   -0.03212786    0.01575270
     atom   15 type  1   force =    -0.01966217   -0.03019984   -0.01575270
     atom   16 type  1   force =     0.01966217    0.03019984    0.01575270
     atom   17 type  1   force =     0.03598491   -0.00192802   -0.01575270
     atom   18 type  1   force =    -0.03598491    0.00192802    0.01575270
     atom   19 type  1   force =     0.00794084    0.00668313    0.04029795
     atom   20 type  1   force =    -0.00794084   -0.00668313   -0.04029795
     atom   21 type  1   force =    -0.00975819    0.00353541    0.04029795
     atom   22 type  1   force =     0.00975819   -0.00353541   -0.04029795
     atom   23 type  1   force =     0.00181734   -0.01021854    0.04029795
     atom   24 type  1   force =    -0.00181734    0.01021854   -0.04029795
     atom   25 type  1   force =     0.01205217    0.03919024   -0.00019843
     atom   26 type  1   force =    -0.01205217   -0.03919024    0.00019843
     atom   27 type  1   force =    -0.03996583   -0.00915763   -0.00019843
     atom   28 type  1   force =     0.03996583    0.00915763    0.00019843
     atom   29 type  1   force =     0.02791366   -0.03003260   -0.00019843
     atom   30 type  1   force =    -0.02791366    0.03003260    0.00019843
     atom   31 type  1   force =     0.02651746   -0.02475206   -0.02065856
     atom   32 type  1   force =    -0.02651746    0.02475206    0.02065856
     atom   33 type  1   force =     0.00817718    0.03534083   -0.02065856
     atom   34 type  1   force =    -0.00817718   -0.03534083    0.02065856
     atom   35 type  1   force =    -0.03469465   -0.01058877   -0.02065856
     atom   36 type  1   force =     0.03469465    0.01058877    0.02065856

     Total force =     0.256590     Total SCF correction =     0.000087


     Computing stress (Cartesian axis) and pressure

          total   stress  (Ry/bohr**3)                   (kbar)     P=       57.17
   0.00038524  -0.00000000   0.00000000           56.67       -0.00        0.00
   0.00000000   0.00038524   0.00000000            0.00       56.67        0.00
   0.00000000   0.00000000   0.00039534            0.00        0.00       58.16


     Writing all to output data dir ./iceII/iceII.save/ :
     XML data file, charge density, pseudopotentials, collected wavefunctions

     init_run     :      0.88s CPU      0.95s WALL (       1 calls)
     electrons    :      9.89s CPU     10.05s WALL (       1 calls)
     forces       :      0.13s CPU      0.13s WALL (       1 calls)
     stress       :      0.81s CPU      0.82s WALL (       1 calls)

     Called by init_run:
     wfcinit      :      0.33s CPU      0.34s WALL (       1 calls)
     potinit      :      0.02s CPU      0.04s WALL (       1 calls)
     hinit0       :      0.39s CPU      0.40s WALL (       1 calls)

     Called by electrons:
     c_bands      :      8.32s CPU      8.40s WALL (      12 calls)
     sum_band     :      1.21s CPU      1.24s WALL (      12 calls)
     v_of_rho     :      0.25s CPU      0.26s WALL (      13 calls)
     newd         :      0.04s CPU      0.05s WALL (      13 calls)
     mix_rho      :      0.04s CPU      0.04s WALL (      12 calls)

     Called by c_bands:
     init_us_2    :      0.14s CPU      0.15s WALL (     108 calls)
     cegterg      :      8.07s CPU      8.13s WALL (      48 calls)

     Called by *egterg:
     cdiaghg      :      0.64s CPU      0.64s WALL (     169 calls)
     h_psi        :      6.44s CPU      6.50s WALL (     173 calls)
     s_psi        :      0.25s CPU      0.25s WALL (     173 calls)
     g_psi        :      0.02s CPU      0.02s WALL (     121 calls)

     Called by h_psi:
     h_psi:calbec :      0.43s CPU      0.44s WALL (     173 calls)
     vloc_psi     :      5.70s CPU      5.76s WALL (     173 calls)
     add_vuspsi   :      0.27s CPU      0.27s WALL (     173 calls)

     General routines
     calbec       :      0.61s CPU      0.61s WALL (     241 calls)
     fft          :      0.49s CPU      0.50s WALL (     151 calls)
     ffts         :      0.01s CPU      0.01s WALL (      12 calls)
     fftw         :      5.97s CPU      6.02s WALL (   16406 calls)

     Parallel routines

     PWSCF        :     11.98s CPU     12.52s WALL


   This run was terminated on:  17:54:48  23Mar2026            

=------------------------------------------------------------------------------=
   JOB DONE.
=------------------------------------------------------------------------------=
