
     Program PWSCF v.7.3.1 starts on 21Mar2026 at 18:44:12 

     This program is part of the open-source Quantum ESPRESSO suite
     for quantum simulation of materials; please cite
         "P. Giannozzi et al., J. Phys.:Condens. Matter 21 395502 (2009);
         "P. Giannozzi et al., J. Phys.:Condens. Matter 29 465901 (2017);
         "P. Giannozzi et al., J. Chem. Phys. 152 154105 (2020);
          URL http://www.quantum-espresso.org", 
     in publications or presentations arising from this work. More details at
     http://www.quantum-espresso.org/quote

     Parallel version (MPI), running on   128 processors

     MPI processes distributed on     1 nodes
     243020 MiB available memory on the printing compute node when the environment starts

     Waiting for input...
     Reading input from standard input

     Current dimensions of program PWSCF are:
     Max number of different atomic species (ntypx) = 10
     Max number of k-points (npk) =  40000
     Max angular momentum in pseudopotentials (lmaxx) =  4

     K-points division:     npool     =       4
     R & G space division:  proc/nbgrp/npool/nimage =      32
     Subspace diagonalization in iterative solution of the eigenvalue problem:
     a serial algorithm will be used


     Parallelization info
     --------------------
     sticks:   dense  smooth     PW     G-vecs:    dense   smooth      PW
     Min         169     169     50                 6882     6882    1101
     Max         170     170     51                 6885     6885    1103
     Sum        5435    5435   1603               220271   220271   35275

     Using Slab Decomposition



     bravais-lattice index     =            5
     lattice parameter (alat)  =      14.3492  a.u.
     unit-cell volume          =    1908.8735 (a.u.)^3
     number of atoms/cell      =           36
     number of atomic types    =            2
     number of electrons       =        96.00
     number of Kohn-Sham states=           48
     kinetic-energy cutoff     =      90.0000  Ry
     charge density cutoff     =     360.0000  Ry
     scf convergence threshold =      1.0E-07
     mixing beta               =       0.7000
     number of iterations used =            8  plain     mixing
     Exchange-correlation=  SLA  PW   PBE  PBE
                           (   1   4   3   4   0   0   0)

     celldm(1)=  14.349219  celldm(2)=   0.000000  celldm(3)=   0.000000
     celldm(4)=  -0.392337  celldm(5)=   0.000000  celldm(6)=   0.000000

     crystal axes: (cart. coord. in units of alat)
               a(1) = (   0.834367  -0.481722   0.267909 )  
               a(2) = (   0.000000   0.963444   0.267909 )  
               a(3) = (  -0.834367  -0.481722   0.267909 )  

     reciprocal axes: (cart. coord. in units 2 pi/alat)
               b(1) = (  0.599257 -0.345981  1.244203 )  
               b(2) = ( -0.000000  0.691962  1.244203 )  
               b(3) = ( -0.599257 -0.345981  1.244203 )  


     PseudoPot. # 1 for H  read from file:
     ./H.pbe-van_ak.UPF
     MD5 check sum: 077eb6d537518a38cb46c6de387227b7
     Pseudo is Ultrasoft, Zval =  1.0
     Generated by new atomic code, or converted to UPF format
     Using radial grid of  615 points,  1 beta functions with: 
                l(1) =   0
     Q(r) pseudized with  8 coefficients,  rinner =    0.800

     PseudoPot. # 2 for O  read from file:
     ./O.pbe-van_ak.UPF
     MD5 check sum: 78c19812648e8988a0fe644b0f25305e
     Pseudo is Ultrasoft, Zval =  6.0
     Generated by new atomic code, or converted to UPF format
     Using radial grid of  737 points,  4 beta functions with: 
                l(1) =   0
                l(2) =   0
                l(3) =   1
                l(4) =   1
     Q(r) pseudized with  8 coefficients,  rinner =    0.800   0.800   0.800


     atomic species   valence    mass     pseudopotential
     H                 1.00     1.00800     H ( 1.00)
     O                 6.00    16.00000     O ( 1.00)

      6 Sym. Ops., with inversion, found



   Cartesian axes

     site n.     atom                  positions (alat units)
         1        O      tau(   1) = (  -0.4847673  -0.5197781   0.3083633  )
         2        O      tau(   2) = (   0.4847673   0.5197782   0.4953638  )
         3        O      tau(   3) = (   0.6925247  -0.1599317   0.3083633  )
         4        O      tau(   4) = (  -0.6925248   0.1599317   0.4953638  )
         5        O      tau(   5) = (  -0.2077574   0.6797099   0.3083633  )
         6        O      tau(   6) = (   0.2077574  -0.6797099   0.4953638  )
         7        O      tau(   7) = (   0.1218176   0.3323883   0.4179381  )
         8        O      tau(   8) = (  -0.1218176  -0.3323883   0.3857890  )
         9        O      tau(   9) = (  -0.3487655  -0.0606970   0.4179381  )
        10        O      tau(  10) = (   0.3487655   0.0606970   0.3857890  )
        11        O      tau(  11) = (   0.2269479  -0.2716913   0.4179381  )
        12        O      tau(  12) = (  -0.2269479   0.2716912   0.3857890  )
        13        H      tau(  13) = (  -0.5381668  -0.4032014   0.2796970  )
        14        H      tau(  14) = (   0.5381668   0.4032014   0.5240301  )
        15        H      tau(  15) = (   0.6182661  -0.2644654   0.2796970  )
        16        H      tau(  16) = (  -0.6182661   0.2644654   0.5240301  )
        17        H      tau(  17) = (  -0.0800993   0.6676668   0.2796970  )
        18        H      tau(  18) = (   0.0800993  -0.6676668   0.5240301  )
        19        H      tau(  19) = (  -0.4872704  -0.4817221   0.4326731  )
        20        H      tau(  20) = (   0.4872704   0.4817221   0.3710540  )
        21        H      tau(  21) = (   0.6608188  -0.1811275   0.4326731  )
        22        H      tau(  22) = (  -0.6608188   0.1811275   0.3710540  )
        23        H      tau(  23) = (  -0.1735484   0.6628496   0.4326731  )
        24        H      tau(  24) = (   0.1735484  -0.6628496   0.3710540  )
        25        H      tau(  25) = (   0.2703349  -0.1502973   0.4058822  )
        26        H      tau(  26) = (  -0.2703350   0.1502973   0.3978449  )
        27        H      tau(  27) = (  -0.0050062   0.3092656   0.4058822  )
        28        H      tau(  28) = (   0.0050062  -0.3092656   0.3978449  )
        29        H      tau(  29) = (  -0.2653287  -0.1589683   0.4058822  )
        30        H      tau(  30) = (   0.2653287   0.1589683   0.3978449  )
        31        H      tau(  31) = (   0.3178939  -0.3347969   0.3493534  )
        32        H      tau(  32) = (  -0.3178939   0.3347969   0.4543737  )
        33        H      tau(  33) = (   0.1309957   0.4427026   0.3493534  )
        34        H      tau(  34) = (  -0.1309956  -0.4427026   0.4543737  )
        35        H      tau(  35) = (  -0.4488895  -0.1079057   0.3493534  )
        36        H      tau(  36) = (   0.4488895   0.1079057   0.4543737  )

     number of k points=    14
                       cart. coord. in units 2pi/alat
        k(    1) = (   0.0000000   0.0000000   0.0000000), wk =   0.0312500
        k(    2) = (  -0.1498141  -0.0864952   0.3110508), wk =   0.1875000
        k(    3) = (   0.2996283   0.1729905  -0.6221017), wk =   0.0937500
        k(    4) = (  -0.1498141   0.0864952   0.6221017), wk =   0.1875000
        k(    5) = (   0.2996283   0.3459809  -0.3110508), wk =   0.1875000
        k(    6) = (   0.1498141   0.2594857   0.0000000), wk =   0.1875000
        k(    7) = (   0.2996283  -0.1729905  -1.2442034), wk =   0.0937500
        k(    8) = (   0.0000000   0.0000000   0.9331525), wk =   0.0625000
        k(    9) = (   0.4494424   0.2594857   0.0000000), wk =   0.1875000
        k(   10) = (   0.2996283   0.1729905   0.3110508), wk =   0.1875000
        k(   11) = (   0.4494424  -0.2594857  -0.9331525), wk =   0.1875000
        k(   12) = (   0.2996283  -0.3459809  -0.6221017), wk =   0.1875000
        k(   13) = (   0.0000000   0.0000000  -1.8663050), wk =   0.0312500
        k(   14) = (   0.2996283  -0.3459809   0.3110508), wk =   0.1875000

     Dense  grid:   220271 G-vectors     FFT dimensions: (  90,  90,  90)

     Estimated max dynamical RAM per process >      14.62 MB

     Estimated total dynamical RAM >       1.67 GB

     Initial potential from superposition of free atoms

     starting charge      95.9998, renormalised to      96.0000
     Starting wfcs are   72 randomized atomic wfcs

     total cpu time spent up to now is        1.2 secs

     per-process dynamical memory:    19.0 Mb

     Self-consistent Calculation

     iteration #  1     ecut=    90.00 Ry     beta= 0.70
     Davidson diagonalization with overlap
     ethr =  1.00E-02,  avg # of iterations =  2.0

     total cpu time spent up to now is        2.0 secs

     total energy              =    -412.26702788 Ry
     estimated scf accuracy    <       3.85106624 Ry

     iteration #  2     ecut=    90.00 Ry     beta= 0.70
     Davidson diagonalization with overlap
     ethr =  4.01E-03,  avg # of iterations =  3.0

     total cpu time spent up to now is        2.9 secs

     total energy              =    -413.49881847 Ry
     estimated scf accuracy    <       2.13889335 Ry

     iteration #  3     ecut=    90.00 Ry     beta= 0.70
     Davidson diagonalization with overlap
     ethr =  2.23E-03,  avg # of iterations =  2.0

     total cpu time spent up to now is        3.7 secs

     total energy              =    -413.76864367 Ry
     estimated scf accuracy    <       0.08878895 Ry

     iteration #  4     ecut=    90.00 Ry     beta= 0.70
     Davidson diagonalization with overlap
     ethr =  9.25E-05,  avg # of iterations =  4.1

     total cpu time spent up to now is        4.8 secs

     total energy              =    -413.83636518 Ry
     estimated scf accuracy    <       0.10638573 Ry

     iteration #  5     ecut=    90.00 Ry     beta= 0.70
     Davidson diagonalization with overlap
     ethr =  9.25E-05,  avg # of iterations =  2.0

     total cpu time spent up to now is        5.5 secs

     total energy              =    -413.83986557 Ry
     estimated scf accuracy    <       0.01786137 Ry

     iteration #  6     ecut=    90.00 Ry     beta= 0.70
     Davidson diagonalization with overlap
     ethr =  1.86E-05,  avg # of iterations =  2.0

     total cpu time spent up to now is        6.2 secs

     total energy              =    -413.83960693 Ry
     estimated scf accuracy    <       0.00549430 Ry

     iteration #  7     ecut=    90.00 Ry     beta= 0.70
     Davidson diagonalization with overlap
     ethr =  5.72E-06,  avg # of iterations =  3.0

     total cpu time spent up to now is        7.0 secs

     total energy              =    -413.84081833 Ry
     estimated scf accuracy    <       0.00012385 Ry

     iteration #  8     ecut=    90.00 Ry     beta= 0.70
     Davidson diagonalization with overlap
     ethr =  1.29E-07,  avg # of iterations =  5.7

     total cpu time spent up to now is        8.3 secs

     total energy              =    -413.84090797 Ry
     estimated scf accuracy    <       0.00053062 Ry

     iteration #  9     ecut=    90.00 Ry     beta= 0.70
     Davidson diagonalization with overlap
     ethr =  1.29E-07,  avg # of iterations =  3.0

     total cpu time spent up to now is        9.3 secs

     total energy              =    -413.84091596 Ry
     estimated scf accuracy    <       0.00008052 Ry

     iteration # 10     ecut=    90.00 Ry     beta= 0.70
     Davidson diagonalization with overlap
     ethr =  8.39E-08,  avg # of iterations =  2.1

     total cpu time spent up to now is       10.1 secs

     total energy              =    -413.84093615 Ry
     estimated scf accuracy    <       0.00000161 Ry

     iteration # 11     ecut=    90.00 Ry     beta= 0.70
     Davidson diagonalization with overlap
     ethr =  1.68E-09,  avg # of iterations =  5.0

     total cpu time spent up to now is       11.1 secs

     End of self-consistent calculation

          k = 0.0000 0.0000 0.0000 ( 27563 PWs)   bands (ev):

   -20.8651 -20.3322 -20.3322 -20.0766 -20.0766 -20.0498 -20.0498 -20.0262
   -20.0246 -19.6757 -19.6757 -19.3158  -8.1230  -7.9068  -7.8519  -7.8519
    -7.7400  -7.7400  -7.3195  -7.1544  -7.1544  -6.9300  -6.9300  -6.7786
    -6.7155  -5.7214  -5.7214  -5.0805  -5.0805  -5.0083  -5.0083  -4.6840
    -4.4733  -3.8011  -3.8011  -3.1133  -2.4984  -2.4984  -2.3863  -2.3048
    -2.2488  -2.2488  -2.1010  -2.1010  -2.0647  -2.0442  -1.9903  -1.9903

          k =-0.1498-0.0865 0.3111 ( 27517 PWs)   bands (ev):

   -20.7799 -20.3784 -20.3181 -20.2430 -20.2181 -20.1321 -19.9656 -19.9171
   -19.8533 -19.6840 -19.6355 -19.3849  -8.0623  -7.9774  -7.8952  -7.8412
    -7.7240  -7.6584  -7.3234  -7.1285  -7.1067  -6.9668  -6.8206  -6.7845
    -6.5554  -5.8803  -5.7344  -5.4482  -5.1046  -4.9457  -4.8053  -4.5599
    -4.5023  -3.7903  -3.7263  -3.2496  -2.6337  -2.5519  -2.4163  -2.3540
    -2.2903  -2.2471  -2.2023  -2.1366  -2.0604  -2.0218  -1.9774  -1.9257

          k = 0.2996 0.1730-0.6221 ( 27568 PWs)   bands (ev):

   -20.5614 -20.5531 -20.3615 -20.3350 -20.2190 -20.2099 -19.9043 -19.8878
   -19.6957 -19.6866 -19.5670 -19.5384  -8.0326  -7.9718  -7.8839  -7.8559
    -7.7329  -7.6638  -7.2670  -7.1310  -7.0831  -6.9775  -6.7259  -6.7256
    -6.2808  -6.1314  -5.7896  -5.6297  -5.1008  -5.0148  -4.7945  -4.6294
    -4.0541  -3.9452  -3.6610  -3.4255  -2.7561  -2.5778  -2.4448  -2.4169
    -2.3345  -2.3072  -2.2096  -2.1406  -2.1264  -1.9791  -1.9639  -1.8759

          k =-0.1498 0.0865 0.6221 ( 27522 PWs)   bands (ev):

   -20.6063 -20.4486 -20.4345 -20.2964 -20.2724 -20.1979 -19.9086 -19.8148
   -19.7735 -19.6385 -19.6178 -19.5105  -8.0415  -7.9479  -7.9277  -7.8142
    -7.7494  -7.6463  -7.2703  -7.1767  -7.1161  -6.8571  -6.7819  -6.7212
    -6.2872  -6.0570  -5.9480  -5.4425  -5.2530  -5.0582  -4.7150  -4.4952
    -4.2827  -3.7572  -3.7235  -3.4453  -2.7293  -2.6274  -2.4333  -2.3788
    -2.3423  -2.2892  -2.2382  -2.1465  -2.1116  -1.9888  -1.9698  -1.8688

          k = 0.2996 0.3460-0.3111 ( 27534 PWs)   bands (ev):

   -20.6683 -20.4873 -20.3564 -20.3388 -20.2343 -20.1600 -19.9102 -19.7968
   -19.7841 -19.6795 -19.6114 -19.4820  -8.0517  -8.0221  -7.8586  -7.8338
    -7.7664  -7.6620  -7.3133  -7.2448  -7.1059  -6.8219  -6.7891  -6.7069
    -6.4260  -6.0897  -5.8322  -5.4704  -5.4208  -4.8703  -4.6802  -4.4015
    -4.1586  -3.9223  -3.7091  -3.4134  -2.6238  -2.5482  -2.4517  -2.3749
    -2.3132  -2.2536  -2.1903  -2.1757  -2.0803  -2.0393  -1.9710  -1.8532

          k = 0.1498 0.2595 0.0000 ( 27524 PWs)   bands (ev):

   -20.8038 -20.4218 -20.3562 -20.2028 -20.1718 -20.0783 -19.9900 -19.9062
   -19.8613 -19.6894 -19.6470 -19.3709  -8.1047  -7.9930  -7.8848  -7.8311
    -7.7010  -7.6932  -7.3938  -7.2329  -7.0271  -6.9326  -6.8515  -6.7225
    -6.7090  -5.8555  -5.7108  -5.4434  -5.3267  -4.8161  -4.6684  -4.5456
    -4.3423  -3.8744  -3.7820  -3.2016  -2.5013  -2.4759  -2.4298  -2.3387
    -2.2943  -2.2635  -2.1312  -2.1141  -2.0756  -2.0639  -1.9476  -1.9306

          k = 0.2996-0.1730-1.2442 ( 27530 PWs)   bands (ev):

   -20.6570 -20.6114 -20.3756 -20.2578 -20.1733 -20.1013 -19.9283 -19.8826
   -19.7570 -19.7285 -19.5228 -19.5030  -8.0832  -8.0390  -7.8906  -7.8535
    -7.6784  -7.6669  -7.3979  -7.3154  -7.0147  -6.9577  -6.7578  -6.7057
    -6.3389  -6.2986  -5.7899  -5.5642  -5.2285  -4.9410  -4.5283  -4.2694
    -4.1513  -4.1037  -3.6221  -3.4227  -2.5224  -2.4627  -2.4383  -2.3785
    -2.2987  -2.2242  -2.2092  -2.1234  -2.1148  -2.0583  -1.9071  -1.8938

          k = 0.0000 0.0000 0.9332 ( 27531 PWs)   bands (ev):

   -20.5446 -20.5446 -20.4536 -20.3951 -20.1891 -20.1891 -19.8244 -19.8244
   -19.6909 -19.6337 -19.6098 -19.6098  -8.0236  -8.0236  -7.8724  -7.7664
    -7.7641  -7.7641  -7.3229  -7.2102  -7.2102  -6.7185  -6.7185  -6.6752
    -6.2027  -6.2027  -6.1983  -5.4949  -5.1548  -5.1548  -4.4501  -4.2588
    -4.2588  -3.7787  -3.7787  -3.6114  -2.5592  -2.5592  -2.4256  -2.3495
    -2.2831  -2.2831  -2.2149  -2.1492  -2.1492  -2.0230  -2.0230  -1.8263

          k = 0.4494 0.2595 0.0000 ( 27550 PWs)   bands (ev):

   -20.6902 -20.4989 -20.4894 -20.2589 -20.1105 -20.0926 -19.9442 -19.9332
   -19.7578 -19.6468 -19.6065 -19.4697  -8.0752  -8.0292  -7.9517  -7.7844
    -7.7195  -7.6532  -7.4150  -7.2594  -7.1193  -6.8421  -6.7810  -6.7320
    -6.4580  -6.0475  -5.9642  -5.5149  -5.2340  -4.9391  -4.4583  -4.4185
    -4.1970  -3.8878  -3.7448  -3.3950  -2.5004  -2.4922  -2.4240  -2.3837
    -2.3131  -2.2457  -2.1708  -2.1449  -2.0838  -2.0326  -1.9658  -1.8727

          k = 0.2996 0.1730 0.3111 ( 27516 PWs)   bands (ev):

   -20.7224 -20.4325 -20.3291 -20.3164 -20.2164 -20.1494 -19.9272 -19.8970
   -19.8100 -19.6727 -19.6076 -19.4284  -8.0726  -8.0103  -7.9208  -7.7812
    -7.7677  -7.6016  -7.3529  -7.2062  -7.0111  -6.9304  -6.8760  -6.7648
    -6.4558  -5.8795  -5.6922  -5.6049  -5.3699  -4.9768  -4.6596  -4.4426
    -4.2888  -3.8539  -3.7224  -3.2898  -2.6442  -2.5651  -2.4770  -2.4210
    -2.3089  -2.2637  -2.1779  -2.1393  -2.0448  -2.0020  -1.9355  -1.9196

          k = 0.4494-0.2595-0.9332 ( 27508 PWs)   bands (ev):

   -20.5744 -20.5673 -20.4120 -20.3398 -20.2019 -20.1163 -19.9718 -19.8770
   -19.7105 -19.6516 -19.5910 -19.4944  -8.1030  -7.9951  -7.9516  -7.7849
    -7.7339  -7.5823  -7.4062  -7.1670  -7.0328  -6.9719  -6.8067  -6.7702
    -6.1629  -6.1239  -5.7731  -5.6221  -5.4199  -5.0733  -4.6116  -4.3140
    -4.0037  -3.9442  -3.7624  -3.3672  -2.6386  -2.5880  -2.5461  -2.4223
    -2.3826  -2.2825  -2.1203  -2.0958  -2.0577  -2.0157  -1.9380  -1.8797

          k = 0.2996-0.3460-0.6221 ( 27510 PWs)   bands (ev):

   -20.5227 -20.5086 -20.3973 -20.3801 -20.2404 -20.2366 -19.8834 -19.8722
   -19.6986 -19.6876 -19.5616 -19.5294  -8.1169  -7.9023  -7.8707  -7.8479
    -7.8082  -7.5847  -7.3003  -7.1797  -7.0033  -6.9559  -6.7801  -6.7745
    -6.1252  -5.9919  -5.8125  -5.6838  -5.3335  -5.2947  -4.5235  -4.4480
    -4.0093  -3.9668  -3.7594  -3.3496  -2.7886  -2.6056  -2.5423  -2.4660
    -2.4016  -2.2474  -2.1719  -2.1272  -2.0991  -1.9660  -1.9463  -1.8587

          k = 0.0000 0.0000-1.8663 ( 27414 PWs)   bands (ev):

   -20.4835 -20.4497 -20.3591 -20.3591 -20.3530 -20.3530 -19.7996 -19.7996
   -19.7510 -19.7510 -19.5438 -19.5150  -8.1694  -7.8577  -7.8577  -7.8404
    -7.8404  -7.5541  -7.3538  -7.1804  -6.8982  -6.8982  -6.8667  -6.8667
    -5.9275  -5.7574  -5.6877  -5.6877  -5.6710  -5.6710  -4.2839  -4.2839
    -4.0555  -4.0555  -3.7679  -3.2965  -2.8224  -2.6105  -2.6105  -2.5105
    -2.5105  -2.1849  -2.1690  -2.0527  -2.0527  -1.9809  -1.9809  -1.8303

          k = 0.2996-0.3460 0.3111 ( 27534 PWs)   bands (ev):

   -20.6685 -20.4847 -20.3716 -20.3277 -20.2306 -20.1605 -19.9127 -19.8148
   -19.7550 -19.6974 -19.6012 -19.4845  -8.0678  -7.9872  -7.8975  -7.8243
    -7.7423  -7.6676  -7.3670  -7.2093  -7.0806  -6.8642  -6.7489  -6.7297
    -6.4154  -6.0169  -5.9374  -5.5165  -5.2734  -4.9394  -4.7644  -4.3018
    -4.1308  -3.9120  -3.7901  -3.3865  -2.6334  -2.5151  -2.4683  -2.3721
    -2.3222  -2.2585  -2.1936  -2.1738  -2.0993  -2.0048  -1.9714  -1.8627

     highest occupied level (ev):    -1.8263

!    total energy              =    -413.84093740 Ry
     estimated scf accuracy    <       0.00000008 Ry

     The total energy is the sum of the following terms:
     one-electron contribution =    -282.17550697 Ry
     hartree contribution      =     176.75974307 Ry
     xc contribution           =    -101.92456677 Ry
     ewald contribution        =    -206.50060672 Ry

     convergence has been achieved in  11 iterations

     Forces acting on atoms (cartesian axes, Ry/au):

     atom    1 type  2   force =    -0.02011536    0.02463747    0.00386424
     atom    2 type  2   force =     0.02011536   -0.02463747   -0.00386424
     atom    3 type  2   force =    -0.01127900   -0.02973915    0.00386424
     atom    4 type  2   force =     0.01127900    0.02973915   -0.00386424
     atom    5 type  2   force =     0.03139436    0.00510168    0.00386424
     atom    6 type  2   force =    -0.03139436   -0.00510168   -0.00386424
     atom    7 type  2   force =     0.00106961    0.00235013   -0.00139836
     atom    8 type  2   force =    -0.00106961   -0.00235013    0.00139836
     atom    9 type  2   force =    -0.00257008   -0.00024876   -0.00139836
     atom   10 type  2   force =     0.00257008    0.00024876    0.00139836
     atom   11 type  2   force =     0.00150047   -0.00210137   -0.00139836
     atom   12 type  2   force =    -0.00150047    0.00210137    0.00139836
     atom   13 type  1   force =    -0.01165829    0.00543512   -0.06406352
     atom   14 type  1   force =     0.01165829   -0.00543512    0.06406352
     atom   15 type  1   force =     0.00112219   -0.01281394   -0.06406352
     atom   16 type  1   force =    -0.00112219    0.01281394    0.06406352
     atom   17 type  1   force =     0.01053610    0.00737881   -0.06406352
     atom   18 type  1   force =    -0.01053610   -0.00737881    0.06406352
     atom   19 type  1   force =     0.03140518   -0.03746480    0.04863522
     atom   20 type  1   force =    -0.03140518    0.03746480   -0.04863522
     atom   21 type  1   force =     0.01674288    0.04593008    0.04863522
     atom   22 type  1   force =    -0.01674288   -0.04593008   -0.04863522
     atom   23 type  1   force =    -0.04814806   -0.00846528    0.04863522
     atom   24 type  1   force =     0.04814806    0.00846528   -0.04863522
     atom   25 type  1   force =    -0.00280524    0.03522744    0.01062410
     atom   26 type  1   force =     0.00280524   -0.03522744   -0.01062410
     atom   27 type  1   force =    -0.02910524   -0.02004313    0.01062410
     atom   28 type  1   force =     0.02910524    0.02004313   -0.01062410
     atom   29 type  1   force =     0.03191048   -0.01518431    0.01062410
     atom   30 type  1   force =    -0.03191048    0.01518431   -0.01062410
     atom   31 type  1   force =    -0.00363927   -0.03079838   -0.00332174
     atom   32 type  1   force =     0.00363927    0.03079838    0.00332174
     atom   33 type  1   force =     0.02849182    0.01224748   -0.00332174
     atom   34 type  1   force =    -0.02849182   -0.01224748    0.00332174
     atom   35 type  1   force =    -0.02485254    0.01855089   -0.00332174
     atom   36 type  1   force =     0.02485254   -0.01855089    0.00332174

     Total force =     0.272704     Total SCF correction =     0.000330


     Computing stress (Cartesian axis) and pressure

          total   stress  (Ry/bohr**3)                   (kbar)     P=       39.40
   0.00019453  -0.00000000   0.00000000           28.62       -0.00        0.00
   0.00000000   0.00019453   0.00000000            0.00       28.62        0.00
   0.00000000   0.00000000   0.00041440            0.00        0.00       60.96


     Writing all to output data dir ./iceII/iceII.save/ :
     XML data file, charge density, pseudopotentials, collected wavefunctions

     init_run     :      0.90s CPU      0.96s WALL (       1 calls)
     electrons    :      9.83s CPU     10.02s WALL (       1 calls)
     forces       :      0.11s CPU      0.13s WALL (       1 calls)
     stress       :      0.81s CPU      0.82s WALL (       1 calls)

     Called by init_run:
     wfcinit      :      0.34s CPU      0.35s WALL (       1 calls)
     potinit      :      0.02s CPU      0.04s WALL (       1 calls)
     hinit0       :      0.39s CPU      0.40s WALL (       1 calls)

     Called by electrons:
     c_bands      :      8.41s CPU      8.53s WALL (      11 calls)
     sum_band     :      1.10s CPU      1.12s WALL (      11 calls)
     v_of_rho     :      0.22s CPU      0.24s WALL (      12 calls)
     newd         :      0.04s CPU      0.05s WALL (      12 calls)
     mix_rho      :      0.03s CPU      0.03s WALL (      11 calls)

     Called by c_bands:
     init_us_2    :      0.12s CPU      0.14s WALL (     100 calls)
     cegterg      :      8.19s CPU      8.27s WALL (      44 calls)

     Called by *egterg:
     cdiaghg      :      0.70s CPU      0.70s WALL (     180 calls)
     h_psi        :      6.41s CPU      6.49s WALL (     184 calls)
     s_psi        :      0.25s CPU      0.26s WALL (     184 calls)
     g_psi        :      0.02s CPU      0.02s WALL (     136 calls)

     Called by h_psi:
     h_psi:calbec :      0.45s CPU      0.46s WALL (     184 calls)
     vloc_psi     :      5.66s CPU      5.72s WALL (     184 calls)
     add_vuspsi   :      0.26s CPU      0.27s WALL (     184 calls)

     General routines
     calbec       :      0.61s CPU      0.62s WALL (     248 calls)
     fft          :      0.48s CPU      0.49s WALL (     140 calls)
     ffts         :      0.01s CPU      0.01s WALL (      11 calls)
     fftw         :      5.83s CPU      5.89s WALL (   16182 calls)

     Parallel routines

     PWSCF        :     11.94s CPU     12.52s WALL


   This run was terminated on:  18:44:24  21Mar2026            

=------------------------------------------------------------------------------=
   JOB DONE.
=------------------------------------------------------------------------------=
