
     Program PWSCF v.7.3.1 starts on 31Mar2026 at 18: 5: 5 

     This program is part of the open-source Quantum ESPRESSO suite
     for quantum simulation of materials; please cite
         "P. Giannozzi et al., J. Phys.:Condens. Matter 21 395502 (2009);
         "P. Giannozzi et al., J. Phys.:Condens. Matter 29 465901 (2017);
         "P. Giannozzi et al., J. Chem. Phys. 152 154105 (2020);
          URL http://www.quantum-espresso.org", 
     in publications or presentations arising from this work. More details at
     http://www.quantum-espresso.org/quote

     Parallel version (MPI), running on   128 processors

     MPI processes distributed on     1 nodes
     500156 MiB available memory on the printing compute node when the environment starts

     Waiting for input...
     Reading input from standard input

     Current dimensions of program PWSCF are:
     Max number of different atomic species (ntypx) = 10
     Max number of k-points (npk) =  40000
     Max angular momentum in pseudopotentials (lmaxx) =  4

     File ./iceII/iceII.update deleted, as requested

     File ./iceII/iceII.bfgs deleted, as requested

     K-points division:     npool     =       4
     R & G space division:  proc/nbgrp/npool/nimage =      32
     Subspace diagonalization in iterative solution of the eigenvalue problem:
     a serial algorithm will be used


     Parallelization info
     --------------------
     sticks:   dense  smooth     PW     G-vecs:    dense   smooth      PW
     Min         170     170     50                 6944     6944    1108
     Max         171     171     51                 6948     6948    1110
     Sum        5455    5455   1605               222257   222257   35467

     Using Slab Decomposition



     bravais-lattice index     =            5
     lattice parameter (alat)  =      14.3933  a.u.
     unit-cell volume          =    1926.5300 (a.u.)^3
     number of atoms/cell      =           36
     number of atomic types    =            2
     number of electrons       =        96.00
     number of Kohn-Sham states=           48
     kinetic-energy cutoff     =      90.0000  Ry
     charge density cutoff     =     360.0000  Ry
     scf convergence threshold =      1.0E-07
     mixing beta               =       0.7000
     number of iterations used =            8  plain     mixing
     energy convergence thresh.=      1.0E-04
     force convergence thresh. =      1.0E-04
     Exchange-correlation=  SLA  PW   PBE  PBE
                           (   1   4   3   4   0   0   0)
     nstep                     =           50


     celldm(1)=  14.393325  celldm(2)=   0.000000  celldm(3)=   0.000000
     celldm(4)=  -0.392337  celldm(5)=   0.000000  celldm(6)=   0.000000

     crystal axes: (cart. coord. in units of alat)
               a(1) = (   0.834367  -0.481722   0.267909 )  
               a(2) = (   0.000000   0.963444   0.267909 )  
               a(3) = (  -0.834367  -0.481722   0.267909 )  

     reciprocal axes: (cart. coord. in units 2 pi/alat)
               b(1) = (  0.599257 -0.345981  1.244203 )  
               b(2) = (  0.000000  0.691962  1.244203 )  
               b(3) = ( -0.599257 -0.345981  1.244203 )  


     PseudoPot. # 1 for H  read from file:
     ./H.pbe-van_ak.UPF
     MD5 check sum: 077eb6d537518a38cb46c6de387227b7
     Pseudo is Ultrasoft, Zval =  1.0
     Generated by new atomic code, or converted to UPF format
     Using radial grid of  615 points,  1 beta functions with: 
                l(1) =   0
     Q(r) pseudized with  8 coefficients,  rinner =    0.800

     PseudoPot. # 2 for O  read from file:
     ./O.pbe-van_ak.UPF
     MD5 check sum: 78c19812648e8988a0fe644b0f25305e
     Pseudo is Ultrasoft, Zval =  6.0
     Generated by new atomic code, or converted to UPF format
     Using radial grid of  737 points,  4 beta functions with: 
                l(1) =   0
                l(2) =   0
                l(3) =   1
                l(4) =   1
     Q(r) pseudized with  8 coefficients,  rinner =    0.800   0.800   0.800


     atomic species   valence    mass     pseudopotential
     H                 1.00     1.00800     H ( 1.00)
     O                 6.00    16.00000     O ( 1.00)

      6 Sym. Ops., with inversion, found



   Cartesian axes

     site n.     atom                  positions (alat units)
         1        O      tau(   1) = (  -0.4847673  -0.5197781   0.3083633  )
         2        O      tau(   2) = (   0.4847673   0.5197782   0.4953638  )
         3        O      tau(   3) = (   0.6925247  -0.1599317   0.3083633  )
         4        O      tau(   4) = (  -0.6925248   0.1599317   0.4953638  )
         5        O      tau(   5) = (  -0.2077574   0.6797099   0.3083633  )
         6        O      tau(   6) = (   0.2077574  -0.6797099   0.4953638  )
         7        O      tau(   7) = (   0.1218176   0.3323883   0.4179381  )
         8        O      tau(   8) = (  -0.1218176  -0.3323883   0.3857890  )
         9        O      tau(   9) = (  -0.3487655  -0.0606970   0.4179381  )
        10        O      tau(  10) = (   0.3487655   0.0606970   0.3857890  )
        11        O      tau(  11) = (   0.2269479  -0.2716913   0.4179381  )
        12        O      tau(  12) = (  -0.2269479   0.2716912   0.3857890  )
        13        H      tau(  13) = (  -0.5381668  -0.4032014   0.2796970  )
        14        H      tau(  14) = (   0.5381668   0.4032014   0.5240301  )
        15        H      tau(  15) = (   0.6182661  -0.2644654   0.2796970  )
        16        H      tau(  16) = (  -0.6182661   0.2644654   0.5240301  )
        17        H      tau(  17) = (  -0.0800993   0.6676668   0.2796970  )
        18        H      tau(  18) = (   0.0800993  -0.6676668   0.5240301  )
        19        H      tau(  19) = (  -0.4872704  -0.4817221   0.4326731  )
        20        H      tau(  20) = (   0.4872704   0.4817221   0.3710540  )
        21        H      tau(  21) = (   0.6608188  -0.1811275   0.4326731  )
        22        H      tau(  22) = (  -0.6608188   0.1811275   0.3710540  )
        23        H      tau(  23) = (  -0.1735484   0.6628496   0.4326731  )
        24        H      tau(  24) = (   0.1735484  -0.6628496   0.3710540  )
        25        H      tau(  25) = (   0.2703349  -0.1502973   0.4058822  )
        26        H      tau(  26) = (  -0.2703350   0.1502973   0.3978449  )
        27        H      tau(  27) = (  -0.0050062   0.3092656   0.4058822  )
        28        H      tau(  28) = (   0.0050062  -0.3092656   0.3978449  )
        29        H      tau(  29) = (  -0.2653287  -0.1589683   0.4058822  )
        30        H      tau(  30) = (   0.2653287   0.1589683   0.3978449  )
        31        H      tau(  31) = (   0.3178939  -0.3347969   0.3493534  )
        32        H      tau(  32) = (  -0.3178939   0.3347969   0.4543737  )
        33        H      tau(  33) = (   0.1309957   0.4427026   0.3493534  )
        34        H      tau(  34) = (  -0.1309956  -0.4427026   0.4543737  )
        35        H      tau(  35) = (  -0.4488895  -0.1079057   0.3493534  )
        36        H      tau(  36) = (   0.4488895   0.1079057   0.4543737  )

     number of k points=    14
                       cart. coord. in units 2pi/alat
        k(    1) = (   0.0000000   0.0000000   0.0000000), wk =   0.0312500
        k(    2) = (  -0.1498141  -0.0864952   0.3110508), wk =   0.1875000
        k(    3) = (   0.2996283   0.1729905  -0.6221017), wk =   0.0937500
        k(    4) = (  -0.1498141   0.0864952   0.6221017), wk =   0.1875000
        k(    5) = (   0.2996283   0.3459809  -0.3110508), wk =   0.1875000
        k(    6) = (   0.1498141   0.2594857   0.0000000), wk =   0.1875000
        k(    7) = (   0.2996283  -0.1729905  -1.2442034), wk =   0.0937500
        k(    8) = (   0.0000000   0.0000000   0.9331525), wk =   0.0625000
        k(    9) = (   0.4494424   0.2594857   0.0000000), wk =   0.1875000
        k(   10) = (   0.2996283   0.1729905   0.3110508), wk =   0.1875000
        k(   11) = (   0.4494424  -0.2594857  -0.9331525), wk =   0.1875000
        k(   12) = (   0.2996283  -0.3459809  -0.6221017), wk =   0.1875000
        k(   13) = (   0.0000000   0.0000000  -1.8663050), wk =   0.0312500
        k(   14) = (   0.2996283  -0.3459809   0.3110508), wk =   0.1875000

     Dense  grid:   222257 G-vectors     FFT dimensions: (  90,  90,  90)

     Estimated max dynamical RAM per process >      14.73 MB

     Estimated total dynamical RAM >       1.68 GB

     Initial potential from superposition of free atoms

     starting charge      95.9998, renormalised to      96.0000
     Starting wfcs are   72 randomized atomic wfcs

     total cpu time spent up to now is        1.2 secs

     per-process dynamical memory:    19.1 Mb

     Self-consistent Calculation

     iteration #  1     ecut=    90.00 Ry     beta= 0.70
     Davidson diagonalization with overlap
     ethr =  1.00E-02,  avg # of iterations =  2.0

     total cpu time spent up to now is        2.0 secs

     total energy              =    -412.27285592 Ry
     estimated scf accuracy    <       3.83603412 Ry

     iteration #  2     ecut=    90.00 Ry     beta= 0.70
     Davidson diagonalization with overlap
     ethr =  4.00E-03,  avg # of iterations =  3.0

     total cpu time spent up to now is        3.0 secs

     total energy              =    -413.49855906 Ry
     estimated scf accuracy    <       2.16495942 Ry

     iteration #  3     ecut=    90.00 Ry     beta= 0.70
     Davidson diagonalization with overlap
     ethr =  2.26E-03,  avg # of iterations =  2.0

     total cpu time spent up to now is        3.8 secs

     total energy              =    -413.77200724 Ry
     estimated scf accuracy    <       0.09019361 Ry

     iteration #  4     ecut=    90.00 Ry     beta= 0.70
     Davidson diagonalization with overlap
     ethr =  9.40E-05,  avg # of iterations =  4.1

     total cpu time spent up to now is        4.9 secs

     total energy              =    -413.84109657 Ry
     estimated scf accuracy    <       0.10770006 Ry

     iteration #  5     ecut=    90.00 Ry     beta= 0.70
     Davidson diagonalization with overlap
     ethr =  9.40E-05,  avg # of iterations =  2.0

     total cpu time spent up to now is        5.6 secs

     total energy              =    -413.84458958 Ry
     estimated scf accuracy    <       0.01819169 Ry

     iteration #  6     ecut=    90.00 Ry     beta= 0.70
     Davidson diagonalization with overlap
     ethr =  1.89E-05,  avg # of iterations =  2.0

     total cpu time spent up to now is        6.3 secs

     total energy              =    -413.84416096 Ry
     estimated scf accuracy    <       0.00590189 Ry

     iteration #  7     ecut=    90.00 Ry     beta= 0.70
     Davidson diagonalization with overlap
     ethr =  6.15E-06,  avg # of iterations =  3.0

     total cpu time spent up to now is        7.2 secs

     total energy              =    -413.84548697 Ry
     estimated scf accuracy    <       0.00013729 Ry

     iteration #  8     ecut=    90.00 Ry     beta= 0.70
     Davidson diagonalization with overlap
     ethr =  1.43E-07,  avg # of iterations =  5.9

     total cpu time spent up to now is        8.5 secs

     total energy              =    -413.84557525 Ry
     estimated scf accuracy    <       0.00059851 Ry

     iteration #  9     ecut=    90.00 Ry     beta= 0.70
     Davidson diagonalization with overlap
     ethr =  1.43E-07,  avg # of iterations =  3.0

     total cpu time spent up to now is        9.4 secs

     total energy              =    -413.84559425 Ry
     estimated scf accuracy    <       0.00007432 Ry

     iteration # 10     ecut=    90.00 Ry     beta= 0.70
     Davidson diagonalization with overlap
     ethr =  7.74E-08,  avg # of iterations =  3.0

     total cpu time spent up to now is       10.3 secs

     total energy              =    -413.84561910 Ry
     estimated scf accuracy    <       0.00000136 Ry

     iteration # 11     ecut=    90.00 Ry     beta= 0.70
     Davidson diagonalization with overlap
     ethr =  1.42E-09,  avg # of iterations =  3.4

     total cpu time spent up to now is       11.3 secs

     total energy              =    -413.84561983 Ry
     estimated scf accuracy    <       0.00000016 Ry

     iteration # 12     ecut=    90.00 Ry     beta= 0.70
     Davidson diagonalization with overlap
     ethr =  1.68E-10,  avg # of iterations =  3.9

     total cpu time spent up to now is       12.2 secs

     End of self-consistent calculation

          k = 0.0000 0.0000 0.0000 ( 27821 PWs)   bands (ev):

   -20.8658 -20.3422 -20.3422 -20.0908 -20.0908 -20.0639 -20.0639 -20.0409
   -20.0399 -19.6965 -19.6965 -19.3425  -8.1354  -7.9212  -7.8657  -7.8657
    -7.7577  -7.7577  -7.3370  -7.1736  -7.1736  -6.9500  -6.9500  -6.8008
    -6.7375  -5.7556  -5.7556  -5.1213  -5.1213  -5.0486  -5.0486  -4.7272
    -4.5196  -3.8510  -3.8510  -3.1660  -2.5400  -2.5400  -2.4293  -2.3480
    -2.2929  -2.2929  -2.1458  -2.1458  -2.1121  -2.0916  -2.0385  -2.0385

          k =-0.1498-0.0865 0.3111 ( 27788 PWs)   bands (ev):

   -20.7820 -20.3878 -20.3283 -20.2545 -20.2296 -20.1450 -19.9814 -19.9336
   -19.8710 -19.7046 -19.6570 -19.4105  -8.0754  -7.9911  -7.9095  -7.8564
    -7.7414  -7.6762  -7.3402  -7.1470  -7.1261  -6.9865  -6.8427  -6.8064
    -6.5805  -5.9130  -5.7690  -5.4849  -5.1442  -4.9876  -4.8475  -4.6046
    -4.5473  -3.8403  -3.7767  -3.3019  -2.6730  -2.5923  -2.4586  -2.3968
    -2.3339  -2.2917  -2.2473  -2.1816  -2.1071  -2.0683  -2.0253  -1.9740

          k = 0.2996 0.1730-0.6221 ( 27786 PWs)   bands (ev):

   -20.5668 -20.5594 -20.3706 -20.3456 -20.2303 -20.2219 -19.9207 -19.9052
   -19.7156 -19.7074 -19.5892 -19.5618  -8.0463  -7.9859  -7.8983  -7.8712
    -7.7498  -7.6815  -7.2840  -7.1495  -7.1024  -6.9971  -6.7492  -6.7491
    -6.3098  -6.1615  -5.8241  -5.6643  -5.1407  -5.0552  -4.8373  -4.6731
    -4.1032  -3.9927  -3.7118  -3.4771  -2.7933  -2.6175  -2.4868  -2.4587
    -2.3774  -2.3510  -2.2544  -2.1866  -2.1714  -2.0262  -2.0115  -1.9246

          k =-0.1498 0.0865 0.6221 ( 27751 PWs)   bands (ev):

   -20.6113 -20.4562 -20.4428 -20.3070 -20.2833 -20.2099 -19.9252 -19.8330
   -19.7925 -19.6597 -19.6393 -19.5341  -8.0552  -7.9622  -7.9421  -7.8294
    -7.7664  -7.6644  -7.2875  -7.1941  -7.1346  -6.8788  -6.8045  -6.7446
    -6.3160  -6.0879  -5.9804  -5.4793  -5.2919  -5.0985  -4.7583  -4.5401
    -4.3287  -3.8069  -3.7745  -3.4962  -2.7671  -2.6663  -2.4753  -2.4218
    -2.3855  -2.3327  -2.2828  -2.1918  -2.1574  -2.0359  -2.0170  -1.9176

          k = 0.2996 0.3460-0.3111 ( 27803 PWs)   bands (ev):

   -20.6722 -20.4943 -20.3663 -20.3479 -20.2463 -20.1726 -19.9272 -19.8151
   -19.8029 -19.7003 -19.6331 -19.5060  -8.0650  -8.0359  -7.8737  -7.8491
    -7.7827  -7.6794  -7.3292  -7.2616  -7.1243  -6.8439  -6.8114  -6.7307
    -6.4533  -6.1210  -5.8657  -5.5065  -5.4580  -4.9133  -4.7237  -4.4472
    -4.2063  -3.9710  -3.7594  -3.4650  -2.6636  -2.5887  -2.4934  -2.4172
    -2.3564  -2.2979  -2.2347  -2.2210  -2.1269  -2.0859  -2.0185  -1.9025

          k = 0.1498 0.2595 0.0000 ( 27750 PWs)   bands (ev):

   -20.8054 -20.4299 -20.3656 -20.2151 -20.1844 -20.0925 -20.0054 -19.9230
   -19.8787 -19.7100 -19.6684 -19.3967  -8.1174  -8.0064  -7.8993  -7.8467
    -7.7181  -7.7105  -7.4087  -7.2503  -7.0466  -6.9527  -6.8733  -6.7463
    -6.7316  -5.8892  -5.7460  -5.4798  -5.3635  -4.8589  -4.7131  -4.5899
    -4.3892  -3.9238  -3.8315  -3.2549  -2.5427  -2.5180  -2.4719  -2.3812
    -2.3374  -2.3071  -2.1767  -2.1600  -2.1218  -2.1108  -1.9959  -1.9792

          k = 0.2996-0.1730-1.2442 ( 27798 PWs)   bands (ev):

   -20.6610 -20.6163 -20.3844 -20.2694 -20.1857 -20.1155 -19.9444 -19.9001
   -19.7759 -19.7485 -19.5460 -19.5267  -8.0960  -8.0525  -7.9058  -7.8689
    -7.6950  -7.6844  -7.4120  -7.3310  -7.0337  -6.9777  -6.7801  -6.7289
    -6.3687  -6.3281  -5.8242  -5.5992  -5.2660  -4.9834  -4.5749  -4.3167
    -4.1996  -4.1499  -3.6727  -3.4750  -2.5631  -2.5047  -2.4813  -2.4203
    -2.3415  -2.2692  -2.2534  -2.1691  -2.1604  -2.1053  -1.9561  -1.9426

          k = 0.0000 0.0000 0.9332 ( 27768 PWs)   bands (ev):

   -20.5505 -20.5505 -20.4608 -20.4044 -20.2017 -20.2017 -19.8426 -19.8426
   -19.7105 -19.6559 -19.6315 -19.6315  -8.0374  -8.0374  -7.8878  -7.7812
    -7.7805  -7.7805  -7.3387  -7.2272  -7.2272  -6.7419  -6.7419  -6.6992
    -6.2324  -6.2324  -6.2285  -5.5312  -5.1947  -5.1947  -4.4955  -4.3053
    -4.3053  -3.8285  -3.8285  -3.6610  -2.5999  -2.5999  -2.4675  -2.3934
    -2.3265  -2.3265  -2.2599  -2.1944  -2.1944  -2.0698  -2.0698  -1.8759

          k = 0.4494 0.2595 0.0000 ( 27787 PWs)   bands (ev):

   -20.6937 -20.5055 -20.4965 -20.2706 -20.1238 -20.1070 -19.9601 -19.9499
   -19.7767 -19.6680 -19.6285 -19.4939  -8.0883  -8.0425  -7.9662  -7.8005
    -7.7363  -7.6702  -7.4291  -7.2757  -7.1368  -6.8634  -6.8035  -6.7546
    -6.4860  -6.0795  -5.9970  -5.5502  -5.2725  -4.9811  -4.5043  -4.4645
    -4.2450  -3.9369  -3.7941  -3.4472  -2.5417  -2.5335  -2.4673  -2.4255
    -2.3561  -2.2897  -2.2156  -2.1900  -2.1303  -2.0799  -2.0140  -1.9218

          k = 0.2996 0.1730 0.3111 ( 27763 PWs)   bands (ev):

   -20.7254 -20.4407 -20.3389 -20.3268 -20.2280 -20.1621 -19.9438 -19.9136
   -19.8287 -19.6932 -19.6296 -19.4533  -8.0857  -8.0239  -7.9351  -7.7968
    -7.7846  -7.6202  -7.3683  -7.2238  -7.0305  -6.9506  -6.8972  -6.7876
    -6.4829  -5.9129  -5.7272  -5.6404  -5.4061  -5.0183  -4.7039  -4.4890
    -4.3348  -3.9041  -3.7721  -3.3426  -2.6838  -2.6049  -2.5183  -2.4624
    -2.3521  -2.3074  -2.2228  -2.1851  -2.0920  -2.0493  -1.9837  -1.9676

          k = 0.4494-0.2595-0.9332 ( 27756 PWs)   bands (ev):

   -20.5796 -20.5732 -20.4201 -20.3503 -20.2137 -20.1294 -19.9877 -19.8943
   -19.7308 -19.6725 -19.6132 -19.5184  -8.1159  -8.0091  -7.9659  -7.8010
    -7.7505  -7.6009  -7.4207  -7.1843  -7.0517  -6.9915  -6.8286  -6.7931
    -6.1938  -6.1548  -5.8075  -5.6569  -5.4565  -5.1138  -4.6567  -4.3611
    -4.0517  -3.9947  -3.8124  -3.4190  -2.6789  -2.6274  -2.5861  -2.4635
    -2.4244  -2.3259  -2.1662  -2.1421  -2.1049  -2.0630  -1.9862  -1.9281

          k = 0.2996-0.3460-0.6221 ( 27742 PWs)   bands (ev):

   -20.5288 -20.5158 -20.4059 -20.3896 -20.2514 -20.2479 -19.9003 -19.8896
   -19.7189 -19.7084 -19.5836 -19.5531  -8.1298  -7.9170  -7.8856  -7.8633
    -7.8242  -7.6034  -7.3172  -7.1965  -7.0232  -6.9759  -6.8028  -6.7972
    -6.1563  -6.0237  -5.8465  -5.7180  -5.3711  -5.3328  -4.5693  -4.4942
    -4.0574  -4.0148  -3.8109  -3.4015  -2.8257  -2.6446  -2.5824  -2.5067
    -2.4435  -2.2915  -2.2168  -2.1730  -2.1456  -2.0137  -1.9942  -1.9075

          k = 0.0000 0.0000-1.8663 ( 27684 PWs)   bands (ev):

   -20.4906 -20.4590 -20.3675 -20.3675 -20.3626 -20.3626 -19.8176 -19.8176
   -19.7711 -19.7711 -19.5661 -19.5391  -8.1817  -7.8735  -7.8735  -7.8557
    -7.8557  -7.5727  -7.3704  -7.1968  -6.9193  -6.9193  -6.8878  -6.8878
    -5.9614  -5.7902  -5.7213  -5.7213  -5.7074  -5.7074  -4.3322  -4.3322
    -4.1027  -4.1027  -3.8204  -3.3490  -2.8592  -2.6492  -2.6492  -2.5503
    -2.5503  -2.2301  -2.2137  -2.0999  -2.0999  -2.0283  -2.0283  -1.8794

          k = 0.2996-0.3460 0.3111 ( 27803 PWs)   bands (ev):

   -20.6723 -20.4919 -20.3804 -20.3378 -20.2427 -20.1732 -19.9294 -19.8327
   -19.7750 -19.7173 -19.6233 -19.5084  -8.0810  -8.0012  -7.9124  -7.8403
    -7.7581  -7.6851  -7.3821  -7.2266  -7.0991  -6.8858  -6.7716  -6.7532
    -6.4431  -6.0488  -5.9696  -5.5532  -5.3108  -4.9815  -4.8075  -4.3486
    -4.1792  -3.9605  -3.8389  -3.4388  -2.6731  -2.5561  -2.5100  -2.4142
    -2.3652  -2.3028  -2.2376  -2.2193  -2.1459  -2.0518  -2.0190  -1.9119

     highest occupied level (ev):    -1.8759

!    total energy              =    -413.84561988 Ry
     estimated scf accuracy    <          6.2E-09 Ry

     The total energy is the sum of the following terms:
     one-electron contribution =    -283.30239747 Ry
     hartree contribution      =     177.16462747 Ry
     xc contribution           =    -101.84003358 Ry
     ewald contribution        =    -205.86781631 Ry

     convergence has been achieved in  12 iterations

     Forces acting on atoms (cartesian axes, Ry/au):

     atom    1 type  2   force =    -0.02214279    0.02984133    0.00742586
     atom    2 type  2   force =     0.02214279   -0.02984133   -0.00742586
     atom    3 type  2   force =    -0.01477195   -0.03409689    0.00742586
     atom    4 type  2   force =     0.01477195    0.03409689   -0.00742586
     atom    5 type  2   force =     0.03691475    0.00425556    0.00742586
     atom    6 type  2   force =    -0.03691475   -0.00425556   -0.00742586
     atom    7 type  2   force =    -0.00318572    0.00515275   -0.00408555
     atom    8 type  2   force =     0.00318572   -0.00515275    0.00408555
     atom    9 type  2   force =    -0.00286956   -0.00533529   -0.00408555
     atom   10 type  2   force =     0.00286956    0.00533529    0.00408555
     atom   11 type  2   force =     0.00605527    0.00018253   -0.00408555
     atom   12 type  2   force =    -0.00605527   -0.00018253    0.00408555
     atom   13 type  1   force =    -0.00966643    0.00121803   -0.06237593
     atom   14 type  1   force =     0.00966643   -0.00121803    0.06237593
     atom   15 type  1   force =     0.00377837   -0.00898039   -0.06237593
     atom   16 type  1   force =    -0.00377837    0.00898039    0.06237593
     atom   17 type  1   force =     0.00588806    0.00776236   -0.06237593
     atom   18 type  1   force =    -0.00588806   -0.00776236    0.06237593
     atom   19 type  1   force =     0.03120066   -0.03846205    0.04348976
     atom   20 type  1   force =    -0.03120066    0.03846205   -0.04348976
     atom   21 type  1   force =     0.01770878    0.04625159    0.04348976
     atom   22 type  1   force =    -0.01770878   -0.04625159   -0.04348976
     atom   23 type  1   force =    -0.04890944   -0.00778954    0.04348976
     atom   24 type  1   force =     0.04890944    0.00778954   -0.04348976
     atom   25 type  1   force =    -0.00428292    0.03016851    0.01089244
     atom   26 type  1   force =     0.00428292   -0.03016851   -0.01089244
     atom   27 type  1   force =    -0.02398523   -0.01879337    0.01089244
     atom   28 type  1   force =     0.02398523    0.01879337   -0.01089244
     atom   29 type  1   force =     0.02826815   -0.01137514    0.01089244
     atom   30 type  1   force =    -0.02826815    0.01137514   -0.01089244
     atom   31 type  1   force =    -0.00701820   -0.02792825   -0.00068034
     atom   32 type  1   force =     0.00701820    0.02792825    0.00068034
     atom   33 type  1   force =     0.02769567    0.00788619   -0.00068034
     atom   34 type  1   force =    -0.02769567   -0.00788619    0.00068034
     atom   35 type  1   force =    -0.02067748    0.02004206   -0.00068034
     atom   36 type  1   force =     0.02067748   -0.02004206    0.00068034

     Total force =     0.264908     Total SCF correction =     0.000044


     Computing stress (Cartesian axis) and pressure

          total   stress  (Ry/bohr**3)                   (kbar)     P=       30.72
   0.00013488   0.00000000  -0.00000000           19.84        0.00       -0.00
  -0.00000000   0.00013488   0.00000000           -0.00       19.84        0.00
  -0.00000000   0.00000000   0.00035681           -0.00        0.00       52.49


     BFGS Geometry Optimization
     Energy error            =      0.0E+00 Ry
     Gradient error          =      6.2E-02 Ry/Bohr

     number of scf cycles    =   1
     number of bfgs steps    =   0

     energy             new  =    -413.8456198806 Ry

     new trust radius        =       0.0659103136 bohr
     new conv_thr            =       0.0000001000 Ry


ATOMIC_POSITIONS (crystal)
O                0.2720027019        0.0260765421        0.8548464730
O                0.7279972981        0.9739234689        0.1451534970
O                0.8548464730        0.2720027019        0.0260765421
O                0.1451534970        0.7279972981        0.9739234689
O                0.0260765421        0.8548464730        0.2720027019
O                0.9739234689        0.1451534970        0.7279972981
O                0.4773903228        0.7498945524        0.3316555952
O                0.5226096772        0.2501054476        0.6683443748
O                0.3316555952        0.4773903228        0.7498945524
O                0.6683443748        0.5226096772        0.2501054476
O                0.7498945524        0.3316555952        0.4773903228
O                0.2501054476        0.6683443748        0.5226096772
H                0.1591763058        0.0636665879        0.8049812114
H                0.8408236802        0.9363334041        0.1950187886
H                0.8049812114        0.1591763058        0.0636665879
H                0.1950187886        0.8408236802        0.9363334041
H                0.0636665879        0.8049812114        0.1591763058
H                0.9363334041        0.1950187886        0.8408236802
H                0.4189829310        0.2069103167        1.0003848844
H                0.5810170690        0.7930896983       -0.0003849054
H                1.0003848844        0.4189829310        0.2069103167
H               -0.0003849054        0.5810170690        0.7930896983
H                0.2069103167        1.0003848844        0.4189829310
H                0.7930896983       -0.0003849054        0.5810170690
H                0.7190380630        0.4033919259        0.3953947252
H                0.2809619370        0.5966080441        0.6046053048
H                0.3953947252        0.7190380630        0.4033919259
H                0.6046053048        0.2809619370        0.5966080441
H                0.4033919259        0.3953947252        0.7190380630
H                0.5966080441        0.6046053048        0.2809619370
H                0.7413203167        0.2015985276        0.3609047299
H                0.2586796833        0.7984014574        0.6390952701
H                0.3609047299        0.7413203167        0.2015985276
H                0.6390952701        0.2586796833        0.7984014574
H                0.2015985276        0.3609047299        0.7413203167
H                0.7984014574        0.6390952701        0.2586796833



     Writing config-only to output data dir ./iceII/iceII.save/ :
     XML data file
     NEW-OLD atomic charge density approx. for the potential

     total cpu time spent up to now is       13.3 secs

     per-process dynamical memory:    24.5 Mb

     Self-consistent Calculation

     iteration #  1     ecut=    90.00 Ry     beta= 0.70
     Davidson diagonalization with overlap
     ethr =  1.00E-06,  avg # of iterations =  6.6

     total cpu time spent up to now is       14.9 secs

     total energy              =    -413.90264908 Ry
     estimated scf accuracy    <       0.00220354 Ry

     iteration #  2     ecut=    90.00 Ry     beta= 0.70
     Davidson diagonalization with overlap
     ethr =  2.30E-06,  avg # of iterations =  2.6

     total cpu time spent up to now is       15.7 secs

     total energy              =    -413.90307835 Ry
     estimated scf accuracy    <       0.00036243 Ry

     iteration #  3     ecut=    90.00 Ry     beta= 0.70
     Davidson diagonalization with overlap
     ethr =  3.78E-07,  avg # of iterations =  2.6

     total cpu time spent up to now is       16.6 secs

     total energy              =    -413.90316009 Ry
     estimated scf accuracy    <       0.00003013 Ry

     iteration #  4     ecut=    90.00 Ry     beta= 0.70
     Davidson diagonalization with overlap
     ethr =  3.14E-08,  avg # of iterations =  2.0

     total cpu time spent up to now is       17.4 secs

     total energy              =    -413.90316367 Ry
     estimated scf accuracy    <       0.00000270 Ry

     iteration #  5     ecut=    90.00 Ry     beta= 0.70
     Davidson diagonalization with overlap
     ethr =  2.81E-09,  avg # of iterations =  3.1

     total cpu time spent up to now is       18.2 secs

     total energy              =    -413.90316437 Ry
     estimated scf accuracy    <       0.00000026 Ry

     iteration #  6     ecut=    90.00 Ry     beta= 0.70
     Davidson diagonalization with overlap
     ethr =  2.73E-10,  avg # of iterations =  2.1

     total cpu time spent up to now is       19.0 secs

     End of self-consistent calculation

          k = 0.0000 0.0000 0.0000 ( 27821 PWs)   bands (ev):

   -20.7755 -20.2444 -20.2444 -19.9942 -19.9942 -19.9592 -19.9592 -19.9454
   -19.9336 -19.5903 -19.5903 -19.2334  -8.1560  -7.9081  -7.9081  -7.9053
    -7.7960  -7.7960  -7.3416  -7.2862  -7.2862  -7.1270  -7.1270  -6.9305
    -6.8916  -5.6329  -5.6329  -5.0083  -5.0083  -4.9525  -4.9525  -4.5718
    -4.4596  -3.7604  -3.7604  -3.0478  -2.5275  -2.5275  -2.4154  -2.3119
    -2.2719  -2.2719  -2.1115  -2.1115  -2.0878  -2.0838  -2.0257  -2.0257

          k =-0.1498-0.0865 0.3111 ( 27788 PWs)   bands (ev):

   -20.6909 -20.2886 -20.2275 -20.1617 -20.1311 -20.0453 -19.8801 -19.8299
   -19.7649 -19.6001 -19.5518 -19.3021  -8.0973  -8.0031  -7.9319  -7.8666
    -7.7833  -7.7187  -7.4043  -7.2901  -7.1908  -7.1590  -7.0327  -7.0049
    -6.6114  -5.8119  -5.6515  -5.3876  -5.1194  -4.8105  -4.7561  -4.4780
    -4.4189  -3.7495  -3.6783  -3.1971  -2.6556  -2.5791  -2.4358  -2.3837
    -2.3189  -2.2632  -2.2309  -2.1481  -2.0928  -2.0362  -2.0118  -1.9570

          k = 0.2996 0.1730-0.6221 ( 27786 PWs)   bands (ev):

   -20.4779 -20.4607 -20.2606 -20.2564 -20.1337 -20.1243 -19.8134 -19.8041
   -19.6178 -19.5973 -19.4707 -19.4672  -8.0439  -8.0091  -7.9213  -7.8973
    -7.7851  -7.7166  -7.3703  -7.2758  -7.1996  -7.1865  -6.9515  -6.9421
    -6.2387  -6.0942  -5.7046  -5.6240  -5.0927  -5.0119  -4.6406  -4.4803
    -3.9648  -3.9057  -3.6184  -3.4015  -2.7690  -2.6089  -2.4766  -2.4280
    -2.3622  -2.3249  -2.2311  -2.1874  -2.1435  -2.0134  -1.9725  -1.9070

          k =-0.1498 0.0865 0.6221 ( 27751 PWs)   bands (ev):

   -20.5190 -20.3588 -20.3447 -20.2082 -20.1873 -20.1111 -19.8222 -19.7261
   -19.6899 -19.5563 -19.5324 -19.4279  -8.0533  -7.9798  -7.9719  -7.8557
    -7.8000  -7.6993  -7.3630  -7.3219  -7.2618  -7.0515  -6.9960  -6.9464
    -6.2524  -5.9978  -5.9043  -5.4132  -5.2181  -5.0420  -4.5803  -4.3649
    -4.1976  -3.7220  -3.6708  -3.4206  -2.7451  -2.6515  -2.4679  -2.3885
    -2.3644  -2.3116  -2.2689  -2.1710  -2.1470  -2.0212  -1.9803  -1.8978

          k = 0.2996 0.3460-0.3111 ( 27803 PWs)   bands (ev):

   -20.5797 -20.3954 -20.2867 -20.2386 -20.1456 -20.0705 -19.8297 -19.7187
   -19.6793 -19.6070 -19.5220 -19.4000  -8.0650  -8.0481  -7.8914  -7.8764
    -7.8183  -7.7082  -7.4627  -7.4002  -7.2661  -7.0084  -6.9954  -6.9144
    -6.3789  -6.0058  -5.7414  -5.4596  -5.4040  -4.8320  -4.5127  -4.3346
    -4.1189  -3.8556  -3.6595  -3.3725  -2.6451  -2.5784  -2.4784  -2.4023
    -2.3298  -2.2666  -2.2194  -2.2030  -2.1194  -2.0702  -1.9810  -1.8805

          k = 0.1498 0.2595 0.0000 ( 27750 PWs)   bands (ev):

   -20.7144 -20.3340 -20.2687 -20.1169 -20.0838 -19.9926 -19.9034 -19.8236
   -19.7712 -19.6040 -19.5625 -19.2883  -8.1331  -8.0039  -7.9285  -7.8616
    -7.7601  -7.7488  -7.5241  -7.3744  -7.2029  -7.1102  -7.0314  -6.9217
    -6.7207  -5.7500  -5.6277  -5.4049  -5.2931  -4.7450  -4.5816  -4.4527
    -4.3158  -3.8244  -3.7426  -3.1353  -2.5308  -2.5066  -2.4630  -2.3625
    -2.3060  -2.2793  -2.1542  -2.1335  -2.1126  -2.0910  -1.9718  -1.9571

          k = 0.2996-0.1730-1.2442 ( 27798 PWs)   bands (ev):

   -20.5670 -20.5241 -20.2881 -20.1719 -20.0845 -20.0161 -19.8387 -19.8015
   -19.6658 -19.6448 -19.4409 -19.4189  -8.1008  -8.0517  -7.9252  -7.8800
    -7.7321  -7.7235  -7.5765  -7.4615  -7.2194  -7.1130  -6.9622  -6.9087
    -6.2494  -6.2282  -5.7079  -5.5486  -5.1812  -4.8682  -4.4292  -4.2298
    -4.0764  -4.0612  -3.5629  -3.3711  -2.5514  -2.4923  -2.4710  -2.4090
    -2.3156  -2.2363  -2.2263  -2.1496  -2.1471  -2.0925  -1.9318  -1.9137

          k = 0.0000 0.0000 0.9332 ( 27768 PWs)   bands (ev):

   -20.4546 -20.4546 -20.3707 -20.3083 -20.0996 -20.0996 -19.7422 -19.7422
   -19.5823 -19.5653 -19.5269 -19.5269  -8.0412  -8.0412  -7.9210  -7.8188
    -7.8068  -7.8068  -7.4812  -7.3592  -7.3592  -6.9347  -6.9347  -6.8848
    -6.1338  -6.1338  -6.0574  -5.5258  -5.1194  -5.1194  -4.2792  -4.1739
    -4.1739  -3.7351  -3.7351  -3.5954  -2.5872  -2.5872  -2.4493  -2.3976
    -2.2944  -2.2944  -2.2267  -2.1864  -2.1864  -2.0412  -2.0412  -1.8536

          k = 0.4494 0.2595 0.0000 ( 27787 PWs)   bands (ev):

   -20.6010 -20.4098 -20.4025 -20.1747 -20.0147 -20.0109 -19.8578 -19.8511
   -19.6666 -19.5638 -19.5228 -19.3867  -8.0951  -8.0384  -7.9772  -7.8240
    -7.7758  -7.7053  -7.5860  -7.4107  -7.3036  -7.0270  -6.9748  -6.9326
    -6.3908  -5.9467  -5.8914  -5.5196  -5.1657  -4.8544  -4.4035  -4.3707
    -4.1046  -3.8340  -3.6989  -3.3385  -2.5284  -2.5191  -2.4619  -2.4142
    -2.3284  -2.2607  -2.1924  -2.1702  -2.1128  -2.0607  -1.9947  -1.8914

          k = 0.2996 0.1730 0.3111 ( 27763 PWs)   bands (ev):

   -20.6336 -20.3427 -20.2428 -20.2300 -20.1282 -20.0633 -19.8422 -19.8055
   -19.7284 -19.5867 -19.5243 -19.3454  -8.0893  -8.0333  -7.9446  -7.8270
    -7.8168  -7.6582  -7.4950  -7.3186  -7.1938  -7.1396  -7.0404  -6.9735
    -6.4574  -5.8106  -5.6429  -5.5186  -5.3435  -4.8709  -4.5918  -4.3788
    -4.2472  -3.7884  -3.6743  -3.2370  -2.6664  -2.5896  -2.5018  -2.4363
    -2.3259  -2.2929  -2.1979  -2.1740  -2.0868  -2.0325  -1.9640  -1.9286

          k = 0.4494-0.2595-0.9332 ( 27756 PWs)   bands (ev):

   -20.4852 -20.4795 -20.3238 -20.2541 -20.1134 -20.0293 -19.8857 -19.7880
   -19.6300 -19.5639 -19.5091 -19.4103  -8.0980  -8.0231  -7.9729  -7.8302
    -7.7826  -7.6328  -7.5614  -7.3338  -7.2060  -7.1689  -7.0002  -6.9656
    -6.1166  -6.0530  -5.6999  -5.6189  -5.3383  -4.9382  -4.5863  -4.2864
    -3.9605  -3.8417  -3.7121  -3.3158  -2.6625  -2.6086  -2.5659  -2.4361
    -2.3952  -2.3178  -2.1545  -2.1253  -2.1037  -2.0492  -1.9643  -1.8829

          k = 0.2996-0.3460-0.6221 ( 27742 PWs)   bands (ev):

   -20.4361 -20.4194 -20.3022 -20.2992 -20.1530 -20.1479 -19.7926 -19.7888
   -19.6147 -19.6077 -19.4694 -19.4519  -8.1087  -7.9445  -7.9085  -7.8881
    -7.8502  -7.6346  -7.4065  -7.3580  -7.1584  -7.1478  -6.9928  -6.9895
    -6.0659  -5.9587  -5.7394  -5.6831  -5.2561  -5.2130  -4.4394  -4.3615
    -3.9693  -3.9236  -3.6752  -3.3252  -2.7959  -2.6290  -2.5655  -2.4757
    -2.4119  -2.2871  -2.1981  -2.1633  -2.1409  -2.0004  -1.9728  -1.8662

          k = 0.0000 0.0000-1.8663 ( 27684 PWs)   bands (ev):

   -20.3846 -20.3732 -20.2859 -20.2859 -20.2497 -20.2497 -19.6913 -19.6913
   -19.6907 -19.6907 -19.4575 -19.4312  -8.1478  -7.9031  -7.9031  -7.8717
    -7.8717  -7.6014  -7.4559  -7.3903  -7.0854  -7.0854  -7.0748  -7.0748
    -5.8603  -5.8352  -5.5963  -5.5963  -5.5658  -5.5658  -4.2078  -4.2078
    -4.0447  -4.0447  -3.6506  -3.2708  -2.8197  -2.6302  -2.6302  -2.5202
    -2.5202  -2.2366  -2.1949  -2.0981  -2.0981  -2.0096  -2.0096  -1.8288

          k = 0.2996-0.3460 0.3111 ( 27803 PWs)   bands (ev):

   -20.5793 -20.3988 -20.2713 -20.2525 -20.1427 -20.0719 -19.8273 -19.7173
   -19.6913 -19.5961 -19.5235 -19.4011  -8.0833  -8.0119  -7.9278  -7.8706
    -7.7852  -7.7241  -7.5102  -7.3584  -7.2508  -7.0422  -6.9676  -6.9267
    -6.3777  -5.9420  -5.8443  -5.4801  -5.2786  -4.8971  -4.6238  -4.2081
    -4.0559  -3.8786  -3.7429  -3.3416  -2.6555  -2.5440  -2.4964  -2.3992
    -2.3398  -2.2712  -2.2134  -2.2040  -2.1442  -2.0348  -1.9829  -1.8888

     highest occupied level (ev):    -1.8288

!    total energy              =    -413.90316440 Ry
     estimated scf accuracy    <       0.00000003 Ry

     The total energy is the sum of the following terms:
     one-electron contribution =    -282.01488246 Ry
     hartree contribution      =     176.59615826 Ry
     xc contribution           =    -101.77417661 Ry
     ewald contribution        =    -206.71026358 Ry

     convergence has been achieved in   6 iterations

     Forces acting on atoms (cartesian axes, Ry/au):

     atom    1 type  2   force =    -0.01087924    0.01336737    0.01795612
     atom    2 type  2   force =     0.01087924   -0.01336737   -0.01795612
     atom    3 type  2   force =    -0.00613686   -0.01610539    0.01795612
     atom    4 type  2   force =     0.00613686    0.01610539   -0.01795612
     atom    5 type  2   force =     0.01701610    0.00273802    0.01795612
     atom    6 type  2   force =    -0.01701610   -0.00273802   -0.01795612
     atom    7 type  2   force =    -0.01484329   -0.00080387   -0.00521670
     atom    8 type  2   force =     0.01484329    0.00080387    0.00521670
     atom    9 type  2   force =     0.00811782   -0.01245273   -0.00521670
     atom   10 type  2   force =    -0.00811782    0.01245273    0.00521670
     atom   11 type  2   force =     0.00672547    0.01325660   -0.00521670
     atom   12 type  2   force =    -0.00672547   -0.01325660    0.00521670
     atom   13 type  1   force =    -0.01193802    0.00786406   -0.04551043
     atom   14 type  1   force =     0.01193802   -0.00786406    0.04551043
     atom   15 type  1   force =    -0.00084147   -0.01427066   -0.04551043
     atom   16 type  1   force =     0.00084147    0.01427066    0.04551043
     atom   17 type  1   force =     0.01277949    0.00640660   -0.04551043
     atom   18 type  1   force =    -0.01277949   -0.00640660    0.04551043
     atom   19 type  1   force =     0.02405719   -0.02744670    0.01853158
     atom   20 type  1   force =    -0.02405719    0.02744670   -0.01853158
     atom   21 type  1   force =     0.01174095    0.03455749    0.01853158
     atom   22 type  1   force =    -0.01174095   -0.03455749   -0.01853158
     atom   23 type  1   force =    -0.03579814   -0.00711078    0.01853158
     atom   24 type  1   force =     0.03579814    0.00711078   -0.01853158
     atom   25 type  1   force =    -0.00565892    0.01002676    0.01048453
     atom   26 type  1   force =     0.00565892   -0.01002676   -0.01048453
     atom   27 type  1   force =    -0.00585397   -0.00991415    0.01048453
     atom   28 type  1   force =     0.00585397    0.00991415   -0.01048453
     atom   29 type  1   force =     0.01151289   -0.00011261    0.01048453
     atom   30 type  1   force =    -0.01151289    0.00011261   -0.01048453
     atom   31 type  1   force =    -0.00574014   -0.02107801   -0.00021153
     atom   32 type  1   force =     0.00574014    0.02107801    0.00021153
     atom   33 type  1   force =     0.02112416    0.00556789   -0.00021153
     atom   34 type  1   force =    -0.02112416   -0.00556789    0.00021153
     atom   35 type  1   force =    -0.01538402    0.01551011   -0.00021153
     atom   36 type  1   force =     0.01538402   -0.01551011    0.00021153

     Total force =     0.182293     Total SCF correction =     0.000205


     Computing stress (Cartesian axis) and pressure

          total   stress  (Ry/bohr**3)                   (kbar)     P=       19.50
   0.00008932   0.00000000  -0.00000000           13.14        0.00       -0.00
  -0.00000000   0.00008932   0.00000000           -0.00       13.14        0.00
   0.00000000   0.00000000   0.00021905            0.00        0.00       32.22

     Energy error            =      5.8E-02 Ry
     Gradient error          =      4.6E-02 Ry/Bohr

     number of scf cycles    =   2
     number of bfgs steps    =   1

     energy             old  =    -413.8456198806 Ry
     energy             new  =    -413.9031643975 Ry

     CASE: energy            _new < energy            _old

     new trust radius        =       0.0725013450 bohr
     new conv_thr            =       0.0000001000 Ry


ATOMIC_POSITIONS (crystal)
O                0.2727428657        0.0292387047        0.8571084707
O                0.7272571343        0.9707613063        0.1428914993
O                0.8571084707        0.2727428657        0.0292387047
O                0.1428914993        0.7272571343        0.9707613063
O                0.0292387047        0.8571084707        0.2727428657
O                0.9707613063        0.1428914993        0.7272571343
O                0.4759622887        0.7492677349        0.3318097587
O                0.5240377113        0.2507322651        0.6681902113
O                0.3318097587        0.4759622887        0.7492677349
O                0.6681902113        0.5240377113        0.2507322651
O                0.7492677349        0.3318097587        0.4759622887
O                0.2507322651        0.6681902113        0.5240377113
H                0.1522009543        0.0581109563        0.7994082728
H                0.8477990317        0.9418890357        0.2005917272
H                0.7994082728        0.1522009543        0.0581109563
H                0.2005917272        0.8477990317        0.9418890357
H                0.0581109563        0.7994082728        0.1522009543
H                0.9418890357        0.2005917272        0.8477990317
H                0.4243202816        0.2076780160        1.0026818139
H                0.5756797184        0.7923219990       -0.0026818349
H                1.0026818139        0.4243202816        0.2076780160
H               -0.0026818349        0.5756797184        0.7923219990
H                0.2076780160        1.0026818139        0.4243202816
H                0.7923219990       -0.0026818349        0.5756797184
H                0.7195762280        0.4056289801        0.3965921977
H                0.2804237720        0.5943709899        0.6034078323
H                0.3965921977        0.7195762280        0.4056289801
H                0.6034078323        0.2804237720        0.5943709899
H                0.4056289801        0.3965921977        0.7195762280
H                0.5943709899        0.6034078323        0.2804237720
H                0.7416981519        0.2000188204        0.3620002252
H                0.2583018481        0.7999811646        0.6379997748
H                0.3620002252        0.7416981519        0.2000188204
H                0.6379997748        0.2583018481        0.7999811646
H                0.2000188204        0.3620002252        0.7416981519
H                0.7999811646        0.6379997748        0.2583018481



     Writing config-only to output data dir ./iceII/iceII.save/ :
     XML data file
     NEW-OLD atomic charge density approx. for the potential

     total cpu time spent up to now is       20.1 secs

     per-process dynamical memory:    29.1 Mb

     Self-consistent Calculation

     iteration #  1     ecut=    90.00 Ry     beta= 0.70
     Davidson diagonalization with overlap
     ethr =  1.00E-06,  avg # of iterations =  7.0

     total cpu time spent up to now is       21.7 secs

     total energy              =    -413.94121972 Ry
     estimated scf accuracy    <       0.00167972 Ry

     iteration #  2     ecut=    90.00 Ry     beta= 0.70
     Davidson diagonalization with overlap
     ethr =  1.75E-06,  avg # of iterations =  2.0

     total cpu time spent up to now is       22.5 secs

     total energy              =    -413.94148913 Ry
     estimated scf accuracy    <       0.00012734 Ry

     iteration #  3     ecut=    90.00 Ry     beta= 0.70
     Davidson diagonalization with overlap
     ethr =  1.33E-07,  avg # of iterations =  2.0

     total cpu time spent up to now is       23.2 secs

     total energy              =    -413.94150954 Ry
     estimated scf accuracy    <       0.00000819 Ry

     iteration #  4     ecut=    90.00 Ry     beta= 0.70
     Davidson diagonalization with overlap
     ethr =  8.53E-09,  avg # of iterations =  2.0

     total cpu time spent up to now is       24.0 secs

     total energy              =    -413.94151093 Ry
     estimated scf accuracy    <       0.00000048 Ry

     iteration #  5     ecut=    90.00 Ry     beta= 0.70
     Davidson diagonalization with overlap
     ethr =  5.05E-10,  avg # of iterations =  3.1

     total cpu time spent up to now is       24.9 secs

     End of self-consistent calculation

          k = 0.0000 0.0000 0.0000 ( 27821 PWs)   bands (ev):

   -20.7079 -20.1780 -20.1780 -19.9098 -19.9098 -19.8860 -19.8860 -19.8699
   -19.8514 -19.5021 -19.5021 -19.1496  -8.1993  -7.9948  -7.9948  -7.9806
    -7.8639  -7.8639  -7.4486  -7.4347  -7.4347  -7.3478  -7.3478  -7.1744
    -6.8194  -5.4953  -5.4953  -4.9182  -4.9182  -4.7732  -4.7732  -4.4134
    -4.3784  -3.6455  -3.6455  -2.9188  -2.5083  -2.5083  -2.4227  -2.2774
    -2.2706  -2.2706  -2.1051  -2.1051  -2.0898  -2.0453  -1.9990  -1.9990

          k =-0.1498-0.0865 0.3111 ( 27788 PWs)   bands (ev):

   -20.6232 -20.2200 -20.1675 -20.0786 -20.0493 -19.9689 -19.8031 -19.7491
   -19.6863 -19.5126 -19.4650 -19.2174  -8.1472  -8.0611  -8.0077  -7.9507
    -7.8562  -7.7997  -7.5320  -7.4586  -7.3739  -7.3206  -7.2469  -7.2175
    -6.5602  -5.6916  -5.5297  -5.2513  -5.0407  -4.6855  -4.5831  -4.3630
    -4.2464  -3.6370  -3.5585  -3.0764  -2.6262  -2.5558  -2.4353  -2.3640
    -2.3181  -2.2539  -2.2072  -2.1284  -2.0750  -2.0251  -1.9954  -1.9460

          k = 0.2996 0.1730-0.6221 ( 27786 PWs)   bands (ev):

   -20.4251 -20.3761 -20.2057 -20.1621 -20.0687 -20.0381 -19.7468 -19.7095
   -19.5534 -19.5001 -19.4008 -19.3651  -8.0866  -8.0720  -8.0050  -7.9632
    -7.8681  -7.7913  -7.5125  -7.4628  -7.3696  -7.3563  -7.1689  -7.1575
    -6.1331  -5.9964  -5.5849  -5.5349  -4.9998  -4.9294  -4.4302  -4.2987
    -3.8143  -3.7873  -3.5049  -3.3078  -2.7236  -2.5853  -2.4671  -2.4068
    -2.3501  -2.3102  -2.2163  -2.1727  -2.1322  -2.0063  -1.9521  -1.9009

          k =-0.1498 0.0865 0.6221 ( 27751 PWs)   bands (ev):

   -20.4543 -20.2891 -20.2714 -20.1373 -20.1048 -20.0341 -19.7434 -19.6503
   -19.6066 -19.4739 -19.4477 -19.3385  -8.0945  -8.0485  -8.0361  -7.9499
    -7.8675  -7.7787  -7.4977  -7.4896  -7.4366  -7.2457  -7.2066  -7.1636
    -6.1573  -5.8786  -5.8069  -5.3127  -5.1209  -4.9454  -4.3974  -4.1729
    -4.0480  -3.6166  -3.5468  -3.3255  -2.7029  -2.6227  -2.4578  -2.3730
    -2.3451  -2.2993  -2.2572  -2.1525  -2.1378  -2.0131  -1.9628  -1.8896

          k = 0.2996 0.3460-0.3111 ( 27803 PWs)   bands (ev):

   -20.5121 -20.3258 -20.2331 -20.1494 -20.0620 -19.9923 -19.7544 -19.6546
   -19.5698 -19.5429 -19.4300 -19.3136  -8.1096  -8.0922  -7.9628  -7.9557
    -7.8917  -7.7937  -7.6072  -7.5707  -7.4576  -7.2216  -7.1981  -7.1377
    -6.2627  -5.8743  -5.5989  -5.3731  -5.3043  -4.7246  -4.3034  -4.1937
    -4.0166  -3.7221  -3.5360  -3.2616  -2.6149  -2.5612  -2.4660  -2.3972
    -2.3156  -2.2395  -2.2172  -2.1895  -2.1093  -2.0593  -1.9580  -1.8667

          k = 0.1498 0.2595 0.0000 ( 27750 PWs)   bands (ev):

   -20.6465 -20.2682 -20.2025 -20.0378 -20.0014 -19.9093 -19.8297 -19.7479
   -19.6928 -19.5166 -19.4729 -19.2040  -8.1747  -8.0569  -7.9992  -7.9336
    -7.8424  -7.8396  -7.6573  -7.5344  -7.4012  -7.3129  -7.2384  -7.1602
    -6.6066  -5.5989  -5.4983  -5.2840  -5.1856  -4.6130  -4.4333  -4.2950
    -4.2200  -3.6986  -3.6321  -3.0027  -2.5135  -2.4879  -2.4669  -2.3603
    -2.2930  -2.2639  -2.1413  -2.1177  -2.1117  -2.0674  -1.9498  -1.9334

          k = 0.2996-0.1730-1.2442 ( 27798 PWs)   bands (ev):

   -20.4966 -20.4591 -20.2227 -20.0923 -20.0056 -19.9305 -19.7681 -19.7236
   -19.5883 -19.5542 -19.3587 -19.3290  -8.1394  -8.0897  -7.9819  -7.9418
    -7.8303  -7.8212  -7.7234  -7.6292  -7.4243  -7.3075  -7.1855  -7.1374
    -6.1092  -6.0959  -5.5612  -5.4574  -5.0650  -4.7355  -4.2653  -4.1300
    -3.9700  -3.9021  -3.4409  -3.2488  -2.5399  -2.4810  -2.4546  -2.4087
    -2.3109  -2.2115  -2.2097  -2.1493  -2.1345  -2.0735  -1.9056  -1.8960

          k = 0.0000 0.0000 0.9332 ( 27768 PWs)   bands (ev):

   -20.3839 -20.3839 -20.3272 -20.2078 -20.0219 -20.0219 -19.6646 -19.6646
   -19.5314 -19.4482 -19.4424 -19.4424  -8.0876  -8.0876  -7.9741  -7.9383
    -7.8771  -7.8771  -7.6205  -7.5386  -7.5386  -7.1519  -7.1519  -7.1138
    -6.0030  -6.0030  -5.8813  -5.4700  -5.0188  -5.0188  -4.0551  -4.0276
    -4.0276  -3.6181  -3.6181  -3.5119  -2.5641  -2.5641  -2.4367  -2.3965
    -2.2785  -2.2785  -2.2103  -2.1792  -2.1792  -2.0208  -2.0208  -1.8380

          k = 0.4494 0.2595 0.0000 ( 27787 PWs)   bands (ev):

   -20.5326 -20.3402 -20.3385 -20.0909 -19.9492 -19.9212 -19.7874 -19.7633
   -19.5928 -19.4791 -19.4331 -19.3004  -8.1343  -8.0795  -8.0214  -7.8999
    -7.8662  -7.8113  -7.7264  -7.5811  -7.4978  -7.2430  -7.1859  -7.1614
    -6.2588  -5.7958  -5.7522  -5.4416  -5.0350  -4.7151  -4.2783  -4.2550
    -3.9453  -3.7084  -3.5860  -3.2136  -2.5167  -2.5022  -2.4528  -2.4147
    -2.3160  -2.2420  -2.1864  -2.1623  -2.0965  -2.0419  -1.9745  -1.8683

          k = 0.2996 0.1730 0.3111 ( 27763 PWs)   bands (ev):

   -20.5659 -20.2762 -20.1826 -20.1489 -20.0412 -19.9855 -19.7642 -19.7349
   -19.6370 -19.5101 -19.4344 -19.2591  -8.1302  -8.0757  -8.0141  -7.9103
    -7.8892  -7.7508  -7.6418  -7.4652  -7.3921  -7.3488  -7.2378  -7.1871
    -6.3752  -5.6941  -5.5551  -5.3374  -5.2500  -4.7293  -4.4331  -4.2496
    -4.1403  -3.6555  -3.5554  -3.1140  -2.6350  -2.5693  -2.4915  -2.4187
    -2.3201  -2.2794  -2.1845  -2.1611  -2.0754  -2.0224  -1.9494  -1.9097

          k = 0.4494-0.2595-0.9332 ( 27756 PWs)   bands (ev):

   -20.4164 -20.4140 -20.2575 -20.1726 -20.0334 -19.9526 -19.8057 -19.7091
   -19.5439 -19.4902 -19.4264 -19.3171  -8.1148  -8.0729  -8.0251  -7.9070
    -7.8696  -7.7444  -7.6932  -7.5155  -7.4057  -7.3640  -7.2133  -7.1793
    -6.0218  -5.9210  -5.5764  -5.5298  -5.1921  -4.7595  -4.4770  -4.1830
    -3.8446  -3.6893  -3.5933  -3.1918  -2.6307  -2.5881  -2.5431  -2.4235
    -2.3792  -2.3152  -2.1469  -2.1140  -2.0955  -2.0374  -1.9499  -1.8619

          k = 0.2996-0.3460-0.6221 ( 27742 PWs)   bands (ev):

   -20.3864 -20.3324 -20.2388 -20.2198 -20.0775 -20.0634 -19.7221 -19.7029
   -19.5353 -19.5187 -19.4107 -19.3423  -8.1252  -8.0162  -7.9851  -7.9553
    -7.9191  -7.7255  -7.5524  -7.5322  -7.3456  -7.3355  -7.2089  -7.2034
    -5.9575  -5.8776  -5.6270  -5.5832  -5.1209  -5.0750  -4.2814  -4.2072
    -3.8562  -3.8146  -3.5285  -3.2316  -2.7395  -2.6042  -2.5453  -2.4583
    -2.3930  -2.2738  -2.1884  -2.1575  -2.1314  -1.9950  -1.9642  -1.8472

          k = 0.0000 0.0000-1.8663 ( 27684 PWs)   bands (ev):

   -20.3407 -20.2703 -20.2376 -20.2376 -20.1512 -20.1512 -19.6341 -19.6341
   -19.5850 -19.5850 -19.4030 -19.3193  -8.1467  -7.9565  -7.9565  -7.9557
    -7.9557  -7.7069  -7.5887  -7.5708  -7.2912  -7.2912  -7.2825  -7.2825
    -5.8139  -5.7722  -5.4694  -5.4694  -5.3904  -5.3904  -4.0481  -4.0481
    -3.9649  -3.9649  -3.4943  -3.1766  -2.7440  -2.6049  -2.6049  -2.5060
    -2.5060  -2.2224  -2.1917  -2.0893  -2.0893  -2.0069  -2.0069  -1.8054

          k = 0.2996-0.3460 0.3111 ( 27803 PWs)   bands (ev):

   -20.5111 -20.3358 -20.2060 -20.1683 -20.0605 -19.9951 -19.7473 -19.6461
   -19.6124 -19.5026 -19.4415 -19.3134  -8.1229  -8.0672  -7.9898  -7.9339
    -7.8859  -7.8044  -7.6521  -7.5293  -7.4472  -7.2333  -7.1876  -7.1463
    -6.2671  -5.8274  -5.6865  -5.3685  -5.2079  -4.7893  -4.4276  -4.0545
    -3.9249  -3.7642  -3.6263  -3.2256  -2.6247  -2.5299  -2.4797  -2.3971
    -2.3184  -2.2537  -2.2065  -2.1936  -2.1336  -2.0220  -1.9613  -1.8741

     highest occupied level (ev):    -1.8054

!    total energy              =    -413.94151109 Ry
     estimated scf accuracy    <       0.00000009 Ry

     The total energy is the sum of the following terms:
     one-electron contribution =    -280.91600825 Ry
     hartree contribution      =     176.10361050 Ry
     xc contribution           =    -101.74001488 Ry
     ewald contribution        =    -207.38909845 Ry

     convergence has been achieved in   5 iterations

     Forces acting on atoms (cartesian axes, Ry/au):

     atom    1 type  2   force =    -0.00857585    0.00835716    0.00235839
     atom    2 type  2   force =     0.00857585   -0.00835716   -0.00235839
     atom    3 type  2   force =    -0.00294958   -0.01160549    0.00235839
     atom    4 type  2   force =     0.00294958    0.01160549   -0.00235839
     atom    5 type  2   force =     0.01152544    0.00324833    0.00235839
     atom    6 type  2   force =    -0.01152544   -0.00324833   -0.00235839
     atom    7 type  2   force =    -0.00205399    0.00357518   -0.00699119
     atom    8 type  2   force =     0.00205399   -0.00357518    0.00699119
     atom    9 type  2   force =    -0.00206920   -0.00356640   -0.00699119
     atom   10 type  2   force =     0.00206920    0.00356640    0.00699119
     atom   11 type  2   force =     0.00412319   -0.00000878   -0.00699119
     atom   12 type  2   force =    -0.00412319    0.00000878    0.00699119
     atom   13 type  1   force =    -0.00639834   -0.00164576   -0.02265190
     atom   14 type  1   force =     0.00639834    0.00164576    0.02265190
     atom   15 type  1   force =     0.00462444   -0.00471825   -0.02265190
     atom   16 type  1   force =    -0.00462444    0.00471825    0.02265190
     atom   17 type  1   force =     0.00177390    0.00636401   -0.02265190
     atom   18 type  1   force =    -0.00177390   -0.00636401    0.02265190
     atom   19 type  1   force =     0.01601816   -0.01151586    0.01248819
     atom   20 type  1   force =    -0.01601816    0.01151586   -0.01248819
     atom   21 type  1   force =     0.00196395    0.01963006    0.01248819
     atom   22 type  1   force =    -0.00196395   -0.01963006   -0.01248819
     atom   23 type  1   force =    -0.01798211   -0.00811420    0.01248819
     atom   24 type  1   force =     0.01798211    0.00811420   -0.01248819
     atom   25 type  1   force =     0.00047040    0.01021379    0.00717472
     atom   26 type  1   force =    -0.00047040   -0.01021379   -0.00717472
     atom   27 type  1   force =    -0.00908061   -0.00469951    0.00717472
     atom   28 type  1   force =     0.00908061    0.00469951   -0.00717472
     atom   29 type  1   force =     0.00861020   -0.00551428    0.00717472
     atom   30 type  1   force =    -0.00861020    0.00551428   -0.00717472
     atom   31 type  1   force =    -0.00748573   -0.00944589    0.00253940
     atom   32 type  1   force =     0.00748573    0.00944589   -0.00253940
     atom   33 type  1   force =     0.01192325   -0.00175989    0.00253940
     atom   34 type  1   force =    -0.01192325    0.00175989   -0.00253940
     atom   35 type  1   force =    -0.00443752    0.01120578    0.00253940
     atom   36 type  1   force =     0.00443752   -0.01120578   -0.00253940

     Total force =     0.098726     Total SCF correction =     0.000392


     Computing stress (Cartesian axis) and pressure

          total   stress  (Ry/bohr**3)                   (kbar)     P=       12.23
   0.00004122   0.00000000   0.00000000            6.06        0.00        0.00
  -0.00000000   0.00004122   0.00000000           -0.00        6.06        0.00
   0.00000000   0.00000000   0.00016700            0.00        0.00       24.57

     Energy error            =      3.8E-02 Ry
     Gradient error          =      2.3E-02 Ry/Bohr

     number of scf cycles    =   3
     number of bfgs steps    =   2

     energy             old  =    -413.9031643975 Ry
     energy             new  =    -413.9415110878 Ry

     CASE: energy            _new < energy            _old

     new trust radius        =       0.0828593239 bohr
     new conv_thr            =       0.0000001000 Ry


ATOMIC_POSITIONS (crystal)
O                0.2723114425        0.0319806955        0.8588935046
O                0.7276885575        0.9680193155        0.1411064654
O                0.8588935046        0.2723114425        0.0319806955
O                0.1411064654        0.7276885575        0.9680193155
O                0.0319806955        0.8588935046        0.2723114425
O                0.9680193155        0.1411064654        0.7276885575
O                0.4737150593        0.7481010334        0.3306325795
O                0.5262849407        0.2518989666        0.6693673905
O                0.3306325795        0.4737150593        0.7481010334
O                0.6693673905        0.5262849407        0.2518989666
O                0.7481010334        0.3306325795        0.4737150593
O                0.2518989666        0.6693673905        0.5262849407
H                0.1443702844        0.0512395076        0.7933267491
H                0.8556297016        0.9487604844        0.2066732509
H                0.7933267491        0.1443702844        0.0512395076
H                0.2066732509        0.8556297016        0.9487604844
H                0.0512395076        0.7933267491        0.1443702844
H                0.9487604844        0.2066732509        0.8556297016
H                0.4310930176        0.2091754123        1.0052619101
H                0.5689069824        0.7908246027       -0.0052619311
H                1.0052619101        0.4310930176        0.2091754123
H               -0.0052619311        0.5689069824        0.7908246027
H                0.2091754123        1.0052619101        0.4310930176
H                0.7908246027       -0.0052619311        0.5689069824
H                0.7206224725        0.4089988078        0.3978699323
H                0.2793775275        0.5910011622        0.6021300977
H                0.3978699323        0.7206224725        0.4089988078
H                0.6021300977        0.2793775275        0.5910011622
H                0.4089988078        0.3978699323        0.7206224725
H                0.5910011622        0.6021300977        0.2793775275
H                0.7421562424        0.1987718528        0.3640749994
H                0.2578437576        0.8012281322        0.6359250006
H                0.3640749994        0.7421562424        0.1987718528
H                0.6359250006        0.2578437576        0.8012281322
H                0.1987718528        0.3640749994        0.7421562424
H                0.8012281322        0.6359250006        0.2578437576



     Writing config-only to output data dir ./iceII/iceII.save/ :
     XML data file
     NEW-OLD atomic charge density approx. for the potential

     total cpu time spent up to now is       25.9 secs

     per-process dynamical memory:    29.1 Mb

     Self-consistent Calculation

     iteration #  1     ecut=    90.00 Ry     beta= 0.70
     Davidson diagonalization with overlap
     ethr =  1.00E-06,  avg # of iterations =  7.1

     total cpu time spent up to now is       27.6 secs

     total energy              =    -413.95702593 Ry
     estimated scf accuracy    <       0.00200684 Ry

     iteration #  2     ecut=    90.00 Ry     beta= 0.70
     Davidson diagonalization with overlap
     ethr =  2.09E-06,  avg # of iterations =  2.0

     negative rho (up, down):  5.387E-08 0.000E+00

     total cpu time spent up to now is       28.3 secs

     total energy              =    -413.95734126 Ry
     estimated scf accuracy    <       0.00015903 Ry

     iteration #  3     ecut=    90.00 Ry     beta= 0.70
     Davidson diagonalization with overlap
     ethr =  1.66E-07,  avg # of iterations =  2.0

     negative rho (up, down):  6.880E-08 0.000E+00

     total cpu time spent up to now is       29.1 secs

     total energy              =    -413.95736485 Ry
     estimated scf accuracy    <       0.00001447 Ry

     iteration #  4     ecut=    90.00 Ry     beta= 0.70
     Davidson diagonalization with overlap
     ethr =  1.51E-08,  avg # of iterations =  2.1

     negative rho (up, down):  7.081E-08 0.000E+00

     total cpu time spent up to now is       29.9 secs

     total energy              =    -413.95736778 Ry
     estimated scf accuracy    <       0.00000122 Ry

     iteration #  5     ecut=    90.00 Ry     beta= 0.70
     Davidson diagonalization with overlap
     ethr =  1.27E-09,  avg # of iterations =  2.1

     negative rho (up, down):  7.072E-08 0.000E+00

     total cpu time spent up to now is       30.7 secs

     End of self-consistent calculation

          k = 0.0000 0.0000 0.0000 ( 27821 PWs)   bands (ev):

   -20.6324 -20.1207 -20.1207 -19.8173 -19.8173 -19.7758 -19.7758 -19.7638
   -19.7626 -19.3654 -19.3654 -19.0299  -8.3045  -8.1084  -8.1084  -8.0831
    -8.0008  -8.0008  -7.6040  -7.5869  -7.5869  -7.5217  -7.5217  -7.3705
    -6.6499  -5.3176  -5.3176  -4.8093  -4.8093  -4.5576  -4.5576  -4.2870
    -4.2063  -3.4930  -3.4930  -2.7746  -2.4993  -2.4993  -2.4103  -2.2498
    -2.2498  -2.2366  -2.0834  -2.0558  -2.0558  -1.9861  -1.9716  -1.9716

          k =-0.1498-0.0865 0.3111 ( 27788 PWs)   bands (ev):

   -20.5509 -20.1605 -20.1279 -19.9649 -19.9170 -19.8701 -19.7152 -19.6570
   -19.5999 -19.3733 -19.3296 -19.0915  -8.2562  -8.1663  -8.1182  -8.0630
    -7.9924  -7.9348  -7.6676  -7.6214  -7.5436  -7.4709  -7.4365  -7.3991
    -6.4023  -5.5272  -5.3582  -5.0892  -4.9415  -4.5680  -4.3373  -4.2244
    -4.0278  -3.4955  -3.4105  -2.9372  -2.5970  -2.5415  -2.4233  -2.3390
    -2.3033  -2.2372  -2.1556  -2.0783  -2.0619  -1.9904  -1.9517  -1.9208

          k = 0.2996 0.1730-0.6221 ( 27786 PWs)   bands (ev):

   -20.3844 -20.2832 -20.1589 -20.0381 -19.9691 -19.9133 -19.6823 -19.6050
   -19.4818 -19.3600 -19.2936 -19.1990  -8.1896  -8.1868  -8.1122  -8.0845
    -7.9977  -7.9159  -7.6523  -7.6157  -7.5461  -7.5185  -7.3588  -7.3390
    -5.9398  -5.8519  -5.4262  -5.3974  -4.8760  -4.8374  -4.1639  -4.0880
    -3.6378  -3.6343  -3.3719  -3.2043  -2.6662  -2.5717  -2.4555  -2.3804
    -2.3390  -2.2477  -2.1893  -2.1816  -2.0834  -1.9919  -1.8941  -1.8793

          k =-0.1498 0.0865 0.6221 ( 27751 PWs)   bands (ev):

   -20.3999 -20.2249 -20.1971 -20.0377 -19.9805 -19.9254 -19.6592 -19.5811
   -19.5069 -19.3504 -19.3188 -19.1868  -8.1985  -8.1577  -8.1501  -8.0715
    -7.9936  -7.9065  -7.6460  -7.6329  -7.5972  -7.4232  -7.3904  -7.3501
    -5.9819  -5.7102  -5.6567  -5.1729  -5.0076  -4.8246  -4.1758  -3.9345
    -3.8592  -3.4920  -3.4049  -3.2152  -2.6542  -2.5959  -2.4529  -2.3571
    -2.2976  -2.2828  -2.2213  -2.1381  -2.1074  -1.9879  -1.9185  -1.8578

          k = 0.2996 0.3460-0.3111 ( 27803 PWs)   bands (ev):

   -20.4426 -20.2631 -20.1841 -20.0288 -19.9392 -19.8948 -19.6714 -19.5815
   -19.4832 -19.4008 -19.2921 -19.1750  -8.2158  -8.1956  -8.0837  -8.0672
    -8.0155  -7.9127  -7.7626  -7.7213  -7.6179  -7.4062  -7.3799  -7.3252
    -6.0932  -5.6915  -5.4375  -5.2688  -5.1376  -4.5874  -4.0819  -3.9845
    -3.8961  -3.5721  -3.3838  -3.1233  -2.5777  -2.5424  -2.4544  -2.3768
    -2.2882  -2.2043  -2.1910  -2.1671  -2.0952  -2.0335  -1.9013  -1.8353

          k = 0.1498 0.2595 0.0000 ( 27750 PWs)   bands (ev):

   -20.5714 -20.2069 -20.1427 -19.9446 -19.8910 -19.7910 -19.7497 -19.6478
   -19.6076 -19.3801 -19.3317 -19.0814  -8.2777  -8.1591  -8.1150  -8.0488
    -7.9772  -7.9688  -7.7950  -7.6849  -7.5769  -7.4786  -7.4199  -7.3536
    -6.4371  -5.4050  -5.3636  -5.1283  -5.0273  -4.4447  -4.2698  -4.1185
    -4.0782  -3.5401  -3.4814  -2.8478  -2.5018  -2.4770  -2.4553  -2.3390
    -2.2640  -2.2232  -2.1248  -2.1035  -2.0787  -2.0158  -1.9098  -1.8958

          k = 0.2996-0.1730-1.2442 ( 27798 PWs)   bands (ev):

   -20.4190 -20.3932 -20.1619 -19.9984 -19.9035 -19.8082 -19.7039 -19.6181
   -19.5060 -19.4064 -19.2410 -19.1852  -8.2358  -8.1927  -8.1022  -8.0562
    -7.9498  -7.9491  -7.8735  -7.7748  -7.6027  -7.4672  -7.3768  -7.3264
    -5.9441  -5.9236  -5.3988  -5.3249  -4.8910  -4.5621  -4.0907  -4.0133
    -3.8102  -3.7183  -3.3015  -3.0836  -2.5193  -2.4681  -2.4420  -2.3916
    -2.2783  -2.1783  -2.1664  -2.1538  -2.1098  -2.0345  -1.8635  -1.8545

          k = 0.0000 0.0000 0.9332 ( 27768 PWs)   bands (ev):

   -20.3090 -20.3090 -20.3030 -20.0469 -19.9313 -19.9313 -19.5654 -19.5654
   -19.5091 -19.3134 -19.3134 -19.2599  -8.1931  -8.1931  -8.1048  -8.0545
    -7.9907  -7.9907  -7.7808  -7.6917  -7.6917  -7.3411  -7.3411  -7.3009
    -5.8300  -5.8300  -5.6270  -5.4286  -4.8773  -4.8773  -3.8571  -3.8571
    -3.7805  -3.4809  -3.4809  -3.3977  -2.5368  -2.5367  -2.4159  -2.4020
    -2.2385  -2.2385  -2.1809  -2.1809  -2.1653  -1.9714  -1.9714  -1.8053

          k = 0.4494 0.2595 0.0000 ( 27787 PWs)   bands (ev):

   -20.4586 -20.2782 -20.2672 -19.9700 -19.8857 -19.8231 -19.6855 -19.6390
   -19.5265 -19.3500 -19.2937 -19.1673  -8.2335  -8.1773  -8.1373  -8.0182
    -7.9961  -7.9326  -7.8733  -7.7319  -7.6642  -7.4180  -7.3713  -7.3514
    -6.0902  -5.6157  -5.5878  -5.3247  -4.8564  -4.5352  -4.1468  -4.0992
    -3.7635  -3.5522  -3.4382  -3.0538  -2.4936  -2.4827  -2.4502  -2.3961
    -2.2859  -2.2110  -2.1650  -2.1427  -2.0613  -2.0090  -1.9428  -1.8198

          k = 0.2996 0.1730 0.3111 ( 27763 PWs)   bands (ev):

   -20.4946 -20.2167 -20.1415 -20.0313 -19.9258 -19.8653 -19.6946 -19.6518
   -19.5103 -19.4042 -19.2947 -19.1257  -8.2355  -8.1766  -8.1206  -8.0283
    -8.0188  -7.8843  -7.7846  -7.6120  -7.5513  -7.5312  -7.4192  -7.3709
    -6.2204  -5.5537  -5.4090  -5.1545  -5.0862  -4.5818  -4.2107  -4.1026
    -3.9953  -3.5071  -3.4051  -2.9663  -2.6025  -2.5475  -2.4728  -2.3843
    -2.3025  -2.2503  -2.1486  -2.1336  -2.0694  -1.9973  -1.9293  -1.8483

          k = 0.4494-0.2595-0.9332 ( 27756 PWs)   bands (ev):

   -20.3559 -20.3419 -20.1982 -20.0544 -19.9342 -19.8494 -19.7131 -19.6143
   -19.4281 -19.4002 -19.3040 -19.1618  -8.2086  -8.1780  -8.1294  -8.0294
    -7.9920  -7.8797  -7.8249  -7.6786  -7.5755  -7.5275  -7.4010  -7.3654
    -5.8958  -5.7482  -5.4389  -5.3805  -4.9839  -4.5560  -4.3209  -4.0576
    -3.6923  -3.5353  -3.4492  -3.0334  -2.5935  -2.5558  -2.5148  -2.3880
    -2.3446  -2.3004  -2.1350  -2.0939  -2.0849  -2.0197  -1.9229  -1.7988

          k = 0.2996-0.3460-0.6221 ( 27742 PWs)   bands (ev):

   -20.3499 -20.2462 -20.1867 -20.1042 -19.9662 -19.9375 -19.6554 -19.6124
   -19.4242 -19.3795 -19.3372 -19.1680  -8.2176  -8.1292  -8.0954  -8.0750
    -8.0404  -7.8521  -7.6957  -7.6756  -7.5245  -7.5057  -7.3965  -7.3878
    -5.7965  -5.7543  -5.4765  -5.4193  -4.9590  -4.9054  -4.0873  -4.0096
    -3.7077  -3.6828  -3.3775  -3.1241  -2.6627  -2.5785  -2.5212  -2.4216
    -2.3466  -2.2762  -2.1548  -2.1416  -2.1176  -1.9813  -1.9440  -1.7886

          k = 0.0000 0.0000-1.8663 ( 27684 PWs)   bands (ev):

   -20.3078 -20.2032 -20.2032 -20.1207 -20.0148 -20.0148 -19.5799 -19.5799
   -19.4180 -19.4180 -19.3635 -19.1426  -8.2277  -8.0774  -8.0774  -8.0652
    -8.0652  -7.8252  -7.7346  -7.7128  -7.4807  -7.4807  -7.4605  -7.4605
    -5.7749  -5.5951  -5.3334  -5.3334  -5.1469  -5.1469  -3.8758  -3.8758
    -3.8335  -3.8335  -3.3560  -3.0688  -2.6253  -2.5762  -2.5762  -2.4663
    -2.4663  -2.2447  -2.1479  -2.0858  -2.0858  -1.9882  -1.9882  -1.7409

          k = 0.2996-0.3460 0.3111 ( 27803 PWs)   bands (ev):

   -20.4407 -20.2791 -20.1601 -20.0334 -19.9486 -19.8974 -19.6432 -19.5998
   -19.5038 -19.3677 -19.3099 -19.1731  -8.2257  -8.1745  -8.1029  -8.0594
    -8.0016  -7.9279  -7.7951  -7.6897  -7.6106  -7.4047  -7.3807  -7.3310
    -6.0963  -5.6908  -5.4657  -5.2279  -5.1046  -4.6497  -4.1937  -3.8694
    -3.7806  -3.6044  -3.4904  -3.0848  -2.5888  -2.5062  -2.4687  -2.3792
    -2.2906  -2.2229  -2.1744  -2.1604  -2.1300  -2.0000  -1.9048  -1.8403

     highest occupied level (ev):    -1.7409

!    total energy              =    -413.95736801 Ry
     estimated scf accuracy    <       0.00000005 Ry

     The total energy is the sum of the following terms:
     one-electron contribution =    -279.39401245 Ry
     hartree contribution      =     175.42320065 Ry
     xc contribution           =    -101.66863299 Ry
     ewald contribution        =    -208.31792322 Ry

     convergence has been achieved in   5 iterations

     Forces acting on atoms (cartesian axes, Ry/au):

     atom    1 type  2   force =    -0.00025992   -0.00329911    0.00457564
     atom    2 type  2   force =     0.00025992    0.00329911   -0.00457564
     atom    3 type  2   force =     0.00298707    0.00142446    0.00457564
     atom    4 type  2   force =    -0.00298707   -0.00142446   -0.00457564
     atom    5 type  2   force =    -0.00272715    0.00187465    0.00457564
     atom    6 type  2   force =     0.00272715   -0.00187465   -0.00457564
     atom    7 type  2   force =    -0.00395388   -0.01151226    0.00074636
     atom    8 type  2   force =     0.00395388    0.01151226   -0.00074636
     atom    9 type  2   force =     0.01194685    0.00233197    0.00074636
     atom   10 type  2   force =    -0.01194685   -0.00233197   -0.00074636
     atom   11 type  2   force =    -0.00799297    0.00918029    0.00074636
     atom   12 type  2   force =     0.00799297   -0.00918029   -0.00074636
     atom   13 type  1   force =    -0.00427933   -0.00262286    0.00003331
     atom   14 type  1   force =     0.00427933    0.00262286   -0.00003331
     atom   15 type  1   force =     0.00441113   -0.00239457    0.00003331
     atom   16 type  1   force =    -0.00441113    0.00239457   -0.00003331
     atom   17 type  1   force =    -0.00013180    0.00501744    0.00003331
     atom   18 type  1   force =     0.00013180   -0.00501744   -0.00003331
     atom   19 type  1   force =     0.00564920    0.00322675   -0.00898548
     atom   20 type  1   force =    -0.00564920   -0.00322675    0.00898548
     atom   21 type  1   force =    -0.00561905    0.00327897   -0.00898548
     atom   22 type  1   force =     0.00561905   -0.00327897    0.00898548
     atom   23 type  1   force =    -0.00003015   -0.00650572   -0.00898548
     atom   24 type  1   force =     0.00003015    0.00650572    0.00898548
     atom   25 type  1   force =     0.00328012   -0.00340310    0.00385068
     atom   26 type  1   force =    -0.00328012    0.00340310   -0.00385068
     atom   27 type  1   force =     0.00130711    0.00454222    0.00385068
     atom   28 type  1   force =    -0.00130711   -0.00454222   -0.00385068
     atom   29 type  1   force =    -0.00458723   -0.00113912    0.00385068
     atom   30 type  1   force =     0.00458723    0.00113912   -0.00385068
     atom   31 type  1   force =     0.00259764   -0.00535119   -0.00340498
     atom   32 type  1   force =    -0.00259764    0.00535119    0.00340498
     atom   33 type  1   force =     0.00333544    0.00492522   -0.00340498
     atom   34 type  1   force =    -0.00333544   -0.00492522    0.00340498
     atom   35 type  1   force =    -0.00593308    0.00042597   -0.00340498
     atom   36 type  1   force =     0.00593308   -0.00042597    0.00340498

     Total force =     0.049780     Total SCF correction =     0.000384


     Computing stress (Cartesian axis) and pressure

          total   stress  (Ry/bohr**3)                   (kbar)     P=        1.84
   0.00000198  -0.00000000   0.00000000            0.29       -0.00        0.00
   0.00000000   0.00000198   0.00000000            0.00        0.29        0.00
   0.00000000   0.00000000   0.00003354            0.00        0.00        4.93

     Energy error            =      1.6E-02 Ry
     Gradient error          =      1.2E-02 Ry/Bohr

     number of scf cycles    =   4
     number of bfgs steps    =   3

     energy             old  =    -413.9415110878 Ry
     energy             new  =    -413.9573680145 Ry

     CASE: energy            _new < energy            _old

     new trust radius        =       0.0108340370 bohr
     new conv_thr            =       0.0000001000 Ry


ATOMIC_POSITIONS (crystal)
O                0.2725891330        0.0322708414        0.8593490634
O                0.7274108670        0.9677291696        0.1406509066
O                0.8593490634        0.2725891330        0.0322708414
O                0.1406509066        0.7274108670        0.9677291696
O                0.0322708414        0.8593490634        0.2725891330
O                0.9677291696        0.1406509066        0.7274108670
O                0.4738135116        0.7475897428        0.3310018342
O                0.5261864884        0.2524102572        0.6689981358
O                0.3310018342        0.4738135116        0.7475897428
O                0.6689981358        0.5261864884        0.2524102572
O                0.7475897428        0.3310018342        0.4738135116
O                0.2524102572        0.6689981358        0.5261864884
H                0.1439089768        0.0507406823        0.7932693608
H                0.8560910092        0.9492593097        0.2067306392
H                0.7932693608        0.1439089768        0.0507406823
H                0.2067306392        0.8560910092        0.9492593097
H                0.0507406823        0.7932693608        0.1439089768
H                0.9492593097        0.2067306392        0.8560910092
H                0.4309286649        0.2087483151        1.0044237840
H                0.5690713351        0.7912516999       -0.0044238050
H                1.0044237840        0.4309286649        0.2087483151
H               -0.0044238050        0.5690713351        0.7912516999
H                0.2087483151        1.0044237840        0.4309286649
H                0.7912516999       -0.0044238050        0.5690713351
H                0.7211891954        0.4093785675        0.3981515478
H                0.2788108046        0.5906214025        0.6018484822
H                0.3981515478        0.7211891954        0.4093785675
H                0.6018484822        0.2788108046        0.5906214025
H                0.4093785675        0.3981515478        0.7211891954
H                0.5906214025        0.6018484822        0.2788108046
H                0.7421218278        0.1981846190        0.3639225734
H                0.2578781722        0.8018153660        0.6360774266
H                0.3639225734        0.7421218278        0.1981846190
H                0.6360774266        0.2578781722        0.8018153660
H                0.1981846190        0.3639225734        0.7421218278
H                0.8018153660        0.6360774266        0.2578781722



     Writing config-only to output data dir ./iceII/iceII.save/ :
     XML data file
     NEW-OLD atomic charge density approx. for the potential

     negative rho (up, down):  7.877E-08 0.000E+00

     total cpu time spent up to now is       31.8 secs

     per-process dynamical memory:    29.1 Mb

     Self-consistent Calculation

     iteration #  1     ecut=    90.00 Ry     beta= 0.70
     Davidson diagonalization with overlap
     ethr =  1.00E-06,  avg # of iterations =  4.0

     negative rho (up, down):  4.050E-08 0.000E+00

     total cpu time spent up to now is       32.9 secs

     total energy              =    -413.95852524 Ry
     estimated scf accuracy    <       0.00028742 Ry

     iteration #  2     ecut=    90.00 Ry     beta= 0.70
     Davidson diagonalization with overlap
     ethr =  2.99E-07,  avg # of iterations =  2.0

     negative rho (up, down):  3.537E-08 0.000E+00

     total cpu time spent up to now is       33.8 secs

     total energy              =    -413.95858216 Ry
     estimated scf accuracy    <       0.00001312 Ry

     iteration #  3     ecut=    90.00 Ry     beta= 0.70
     Davidson diagonalization with overlap
     ethr =  1.37E-08,  avg # of iterations =  2.0

     negative rho (up, down):  3.281E-08 0.000E+00

     total cpu time spent up to now is       34.5 secs

     total energy              =    -413.95858514 Ry
     estimated scf accuracy    <       0.00000141 Ry

     iteration #  4     ecut=    90.00 Ry     beta= 0.70
     Davidson diagonalization with overlap
     ethr =  1.47E-09,  avg # of iterations =  2.0

     negative rho (up, down):  3.180E-08 0.000E+00

     total cpu time spent up to now is       35.3 secs

     total energy              =    -413.95858543 Ry
     estimated scf accuracy    <       0.00000015 Ry

     iteration #  5     ecut=    90.00 Ry     beta= 0.70
     Davidson diagonalization with overlap
     ethr =  1.57E-10,  avg # of iterations =  2.1

     negative rho (up, down):  3.143E-08 0.000E+00

     total cpu time spent up to now is       36.1 secs

     End of self-consistent calculation

          k = 0.0000 0.0000 0.0000 ( 27821 PWs)   bands (ev):

   -20.6197 -20.0971 -20.0971 -19.7910 -19.7910 -19.7900 -19.7900 -19.7693
   -19.7428 -19.3769 -19.3769 -19.0312  -8.2519  -8.1041  -8.1041  -8.0767
    -7.9552  -7.9552  -7.6171  -7.5888  -7.5888  -7.5590  -7.5590  -7.4205
    -6.6442  -5.3237  -5.3237  -4.7930  -4.7930  -4.5502  -4.5502  -4.2900
    -4.2014  -3.4882  -3.4882  -2.7601  -2.4836  -2.4836  -2.4166  -2.2581
    -2.2581  -2.2297  -2.0936  -2.0790  -2.0790  -1.9807  -1.9674  -1.9674

          k =-0.1498-0.0865 0.3111 ( 27788 PWs)   bands (ev):

   -20.5363 -20.1361 -20.0976 -19.9629 -19.9317 -19.8641 -19.7037 -19.6422
   -19.5840 -19.3874 -19.3417 -19.0963  -8.2082  -8.1437  -8.1050  -8.0536
    -7.9514  -7.9060  -7.6845  -7.6347  -7.5787  -7.4881  -7.4666  -7.4270
    -6.4036  -5.5303  -5.3644  -5.0822  -4.9214  -4.5616  -4.3370  -4.2174
    -4.0262  -3.4892  -3.4061  -2.9215  -2.5835  -2.5250  -2.4248  -2.3383
    -2.3087  -2.2420  -2.1613  -2.0905  -2.0601  -1.9986  -1.9639  -1.9277

          k = 0.2996 0.1730-0.6221 ( 27786 PWs)   bands (ev):

   -20.3567 -20.2728 -20.1307 -20.0394 -19.9724 -19.9205 -19.6586 -19.5910
   -19.4647 -19.3709 -19.2949 -19.2222  -8.1591  -8.1510  -8.0954  -8.0530
    -7.9663  -7.8941  -7.6782  -7.6507  -7.5643  -7.5358  -7.3814  -7.3630
    -5.9499  -5.8528  -5.4213  -5.3964  -4.8638  -4.8228  -4.1683  -4.0899
    -3.6300  -3.6298  -3.3670  -3.1837  -2.6534  -2.5547  -2.4474  -2.3850
    -2.3372  -2.2617  -2.1988  -2.1662  -2.0978  -1.9963  -1.9127  -1.8907

          k =-0.1498 0.0865 0.6221 ( 27751 PWs)   bands (ev):

   -20.3765 -20.2024 -20.1788 -20.0371 -19.9880 -19.9258 -19.6429 -19.5563
   -19.4955 -19.3579 -19.3288 -19.2048  -8.1602  -8.1350  -8.1168  -8.0578
    -7.9578  -7.8799  -7.6747  -7.6604  -7.6211  -7.4433  -7.4127  -7.3735
    -5.9902  -5.7114  -5.6571  -5.1676  -4.9959  -4.8119  -4.1783  -3.9353
    -3.8565  -3.4840  -3.3981  -3.1966  -2.6403  -2.5809  -2.4431  -2.3591
    -2.3038  -2.2846  -2.2294  -2.1320  -2.1166  -1.9988  -1.9317  -1.8724

          k = 0.2996 0.3460-0.3111 ( 27803 PWs)   bands (ev):

   -20.4258 -20.2416 -20.1588 -20.0335 -19.9449 -19.8862 -19.6566 -19.5651
   -19.4556 -19.4244 -19.3032 -19.1872  -8.1729  -8.1596  -8.0735  -8.0416
    -7.9790  -7.8964  -7.7710  -7.7450  -7.6510  -7.4323  -7.4098  -7.3548
    -6.0890  -5.6899  -5.4388  -5.2508  -5.1419  -4.5796  -4.0858  -3.9864
    -3.8823  -3.5623  -3.3789  -3.1102  -2.5659  -2.5319  -2.4457  -2.3804
    -2.2915  -2.2092  -2.1971  -2.1684  -2.0958  -2.0420  -1.9165  -1.8448

          k = 0.1498 0.2595 0.0000 ( 27750 PWs)   bands (ev):

   -20.5581 -20.1859 -20.1204 -19.9342 -19.8887 -19.7941 -19.7338 -19.6460
   -19.5897 -19.3915 -19.3448 -19.0846  -8.2268  -8.1383  -8.0996  -8.0299
    -7.9466  -7.9440  -7.8014  -7.6989  -7.6074  -7.5064  -7.4466  -7.3962
    -6.4292  -5.4023  -5.3565  -5.1206  -5.0339  -4.4358  -4.2576  -4.1171
    -4.0747  -3.5320  -3.4780  -2.8355  -2.4887  -2.4618  -2.4564  -2.3457
    -2.2724  -2.2249  -2.1292  -2.1147  -2.0849  -2.0197  -1.9172  -1.8988

          k = 0.2996-0.1730-1.2442 ( 27798 PWs)   bands (ev):

   -20.4044 -20.3766 -20.1403 -19.9898 -19.8974 -19.8130 -19.6788 -19.6192
   -19.4865 -19.4226 -19.2442 -19.1981  -8.1940  -8.1487  -8.0731  -8.0271
    -7.9490  -7.9338  -7.8771  -7.7913  -7.6344  -7.4966  -7.4119  -7.3601
    -5.9270  -5.9185  -5.3839  -5.3317  -4.9007  -4.5578  -4.0746  -4.0142
    -3.8065  -3.7052  -3.3000  -3.0737  -2.5108  -2.4598  -2.4291  -2.3957
    -2.2888  -2.1846  -2.1773  -2.1454  -2.1131  -2.0434  -1.8683  -1.8661

          k = 0.0000 0.0000 0.9332 ( 27768 PWs)   bands (ev):

   -20.2923 -20.2923 -20.2709 -20.0728 -19.9182 -19.9182 -19.5618 -19.5618
   -19.4596 -19.3225 -19.3225 -19.2899  -8.1541  -8.1541  -8.0750  -8.0455
    -7.9661  -7.9661  -7.7861  -7.7216  -7.7216  -7.3670  -7.3670  -7.3343
[...]
O                0.2499626904        0.6669024486        0.5184186511
H                0.1397977632        0.0385320208        0.7922207020
H                0.8602022228        0.9614679712        0.2077792980
H                0.7922207020        0.1397977632        0.0385320208
H                0.2077792980        0.8602022228        0.9614679712
H                0.0385320208        0.7922207020        0.1397977632
H                0.9614679712        0.2077792980        0.8602022228
H                0.4275461987        0.1967093640        0.9914897412
H                0.5724538013        0.8032906510        0.0085102378
H                0.9914897412        0.4275461987        0.1967093640
H                0.0085102378        0.5724538013        0.8032906510
H                0.1967093640        0.9914897412        0.4275461987
H                0.8032906510        0.0085102378        0.5724538013
H                0.7290864665        0.4146233248        0.4079150141
H                0.2709135335        0.5853766452        0.5920850159
H                0.4079150141        0.7290864665        0.4146233248
H                0.5920850159        0.2709135335        0.5853766452
H                0.4146233248        0.4079150141        0.7290864665
H                0.5853766452        0.5920850159        0.2709135335
H                0.7439027292        0.2009378782        0.3705350002
H                0.2560972708        0.7990621068        0.6294649998
H                0.3705350002        0.7439027292        0.2009378782
H                0.6294649998        0.2560972708        0.7990621068
H                0.2009378782        0.3705350002        0.7439027292
H                0.7990621068        0.6294649998        0.2560972708



     Writing config-only to output data dir ./iceII/iceII.save/ :
     XML data file
     NEW-OLD atomic charge density approx. for the potential

     total cpu time spent up to now is      313.4 secs

     per-process dynamical memory:    30.1 Mb

     Self-consistent Calculation

     iteration #  1     ecut=    90.00 Ry     beta= 0.70
     Davidson diagonalization with overlap
     ethr =  1.00E-06,  avg # of iterations =  2.0

     Threshold (ethr) on eigenvalues was too large:
     Diagonalizing with lowered threshold

     Davidson diagonalization with overlap
     ethr =  4.04E-10,  avg # of iterations =  4.1

     total cpu time spent up to now is      315.3 secs

     total energy              =    -413.96557283 Ry
     estimated scf accuracy    <       0.00000070 Ry

     iteration #  2     ecut=    90.00 Ry     beta= 0.70
     Davidson diagonalization with overlap
     ethr =  7.27E-10,  avg # of iterations =  2.0

     total cpu time spent up to now is      316.1 secs

     total energy              =    -413.96557293 Ry
     estimated scf accuracy    <       0.00000003 Ry

     iteration #  3     ecut=    90.00 Ry     beta= 0.70
     Davidson diagonalization with overlap
     ethr =  3.38E-11,  avg # of iterations =  2.1

     total cpu time spent up to now is      316.9 secs

     total energy              =    -413.96557293 Ry
     estimated scf accuracy    <          5.6E-09 Ry

     iteration #  4     ecut=    90.00 Ry     beta= 0.70
     Davidson diagonalization with overlap
     ethr =  5.85E-12,  avg # of iterations =  2.2

     total cpu time spent up to now is      317.7 secs

     End of self-consistent calculation

          k = 0.0000 0.0000 0.0000 ( 27821 PWs)   bands (ev):

   -20.6158 -20.0774 -20.0774 -19.8295 -19.8295 -19.8047 -19.7684 -19.7684
   -19.7490 -19.4116 -19.4116 -19.0321  -8.1387  -8.0068  -8.0068  -7.9857
    -7.8821  -7.8821  -7.5419  -7.5414  -7.5414  -7.5414  -7.5414  -7.4878
    -6.6279  -5.3915  -5.3915  -4.7818  -4.7818  -4.5336  -4.5336  -4.4385
    -4.2308  -3.5046  -3.5046  -2.6969  -2.4657  -2.4657  -2.3811  -2.2765
    -2.2765  -2.2141  -2.1471  -2.1471  -2.1178  -2.0132  -1.9789  -1.9789

          k =-0.1498-0.0865 0.3111 ( 27788 PWs)   bands (ev):

   -20.5316 -20.1194 -20.0650 -19.9939 -19.9520 -19.8721 -19.7199 -19.6561
   -19.5841 -19.4205 -19.3699 -19.1015  -8.0951  -8.0437  -8.0087  -7.9690
    -7.8768  -7.8336  -7.6407  -7.5973  -7.5577  -7.4930  -7.4299  -7.4097
    -6.4128  -5.5787  -5.4164  -5.0976  -4.9023  -4.6292  -4.3494  -4.2416
    -4.0499  -3.5040  -3.4293  -2.8639  -2.5563  -2.4937  -2.4037  -2.3585
    -2.3294  -2.2627  -2.1681  -2.1252  -2.0807  -2.0495  -1.9887  -1.9763

          k = 0.2996 0.1730-0.6221 ( 27786 PWs)   bands (ev):

   -20.3260 -20.2956 -20.0983 -20.0669 -19.9689 -19.9430 -19.6616 -19.6274
   -19.4606 -19.4047 -19.2910 -19.2525  -8.0631  -8.0438  -7.9924  -7.9718
    -7.8883  -7.8192  -7.6426  -7.6156  -7.5703  -7.4957  -7.3566  -7.3391
    -6.0031  -5.8746  -5.4609  -5.3955  -4.8919  -4.8378  -4.1998  -4.1309
    -3.6358  -3.6175  -3.4052  -3.1307  -2.6277  -2.5218  -2.4275  -2.4223
    -2.3521  -2.2544  -2.2375  -2.1452  -2.1236  -2.0417  -1.9628  -1.9583

          k =-0.1498 0.0865 0.6221 ( 27751 PWs)   bands (ev):

   -20.3641 -20.1914 -20.1770 -20.0385 -20.0120 -19.9325 -19.6616 -19.5622
   -19.5139 -19.3735 -19.3476 -19.2223  -8.0575  -8.0360  -8.0090  -7.9847
    -7.8731  -7.8040  -7.6415  -7.6223  -7.6134  -7.4260  -7.3853  -7.3468
    -6.0344  -5.7390  -5.6790  -5.1891  -5.0284  -4.8231  -4.2164  -3.9674
    -3.8624  -3.4927  -3.3972  -3.1632  -2.6201  -2.5457  -2.4245  -2.3792
    -2.3284  -2.3012  -2.2398  -2.1381  -2.1166  -2.0507  -1.9814  -1.9384

          k = 0.2996 0.3460-0.3111 ( 27803 PWs)   bands (ev):

   -20.4169 -20.2255 -20.1383 -20.0634 -19.9704 -19.8920 -19.6772 -19.5560
   -19.4777 -19.4343 -19.3274 -19.2060  -8.0654  -8.0557  -7.9873  -7.9517
    -7.8885  -7.8298  -7.7253  -7.6842  -7.6187  -7.4343  -7.4115  -7.3523
    -6.1013  -5.7152  -5.4885  -5.2356  -5.1902  -4.6031  -4.1540  -4.0239
    -3.8607  -3.5561  -3.3955  -3.0857  -2.5443  -2.4984  -2.4330  -2.3738
    -2.3218  -2.2411  -2.2103  -2.1789  -2.0989  -2.0874  -1.9584  -1.9036

          k = 0.1498 0.2595 0.0000 ( 27750 PWs)   bands (ev):

   -20.5531 -20.1652 -20.0990 -19.9631 -19.9095 -19.8243 -19.7330 -19.6538
   -19.5797 -19.4211 -19.3814 -19.0912  -8.1119  -8.0317  -8.0072  -7.9551
    -7.8758  -7.8651  -7.7187  -7.6453  -7.5765  -7.4897  -7.4672  -7.4184
    -6.4212  -5.4536  -5.3843  -5.1228  -5.0830  -4.4536  -4.2951  -4.1579
    -4.0854  -3.5391  -3.4985  -2.7973  -2.4670  -2.4433  -2.4276  -2.3390
    -2.2894  -2.2436  -2.1821  -2.1558  -2.0991  -2.0459  -1.9479  -1.9298

          k = 0.2996-0.1730-1.2442 ( 27798 PWs)   bands (ev):

   -20.4000 -20.3604 -20.1150 -20.0235 -19.9054 -19.8582 -19.6502 -19.6491
   -19.4644 -19.4630 -19.2568 -19.2274  -8.0776  -8.0424  -7.9876  -7.9463
    -7.8685  -7.8522  -7.8170  -7.7128  -7.6049  -7.4860  -7.4450  -7.3833
    -5.9325  -5.9137  -5.4100  -5.3630  -4.9751  -4.5931  -4.1012  -4.0374
    -3.8258  -3.6828  -3.2996  -3.0839  -2.4778  -2.4418  -2.4043  -2.3788
    -2.3102  -2.2373  -2.2229  -2.1580  -2.1265  -2.0599  -1.9085  -1.9025

          k = 0.0000 0.0000 0.9332 ( 27768 PWs)   bands (ev):

   -20.2845 -20.2845 -20.2201 -20.1458 -19.9232 -19.9232 -19.5813 -19.5813
   -19.4197 -19.3406 -19.3404 -19.3404  -8.0507  -8.0507  -8.0046  -7.9383
    -7.8858  -7.8858  -7.7437  -7.6709  -7.6709  -7.3715  -7.3715  -7.3359
    -5.8224  -5.8224  -5.7192  -5.3935  -4.9230  -4.9230  -3.8919  -3.8919
    -3.8025  -3.4701  -3.4701  -3.3449  -2.4976  -2.4976  -2.3998  -2.3574
    -2.2948  -2.2948  -2.2120  -2.1675  -2.1675  -2.0293  -2.0293  -1.8751

          k = 0.4494 0.2595 0.0000 ( 27787 PWs)   bands (ev):

   -20.4365 -20.2388 -20.2360 -20.0249 -19.8548 -19.8289 -19.7021 -19.6662
   -19.4689 -19.3831 -19.3379 -19.1954  -8.0721  -8.0340  -8.0129  -7.9198
    -7.8986  -7.8389  -7.8145  -7.6938  -7.6449  -7.4637  -7.4271  -7.4010
    -6.0779  -5.6077  -5.5680  -5.3950  -4.9390  -4.5884  -4.1731  -4.0623
    -3.7493  -3.5629  -3.4529  -3.0410  -2.4591  -2.4445  -2.4241  -2.3715
    -2.3206  -2.2562  -2.2099  -2.1810  -2.0877  -2.0346  -1.9632  -1.8780

          k = 0.2996 0.1730 0.3111 ( 27763 PWs)   bands (ev):

   -20.4727 -20.1729 -20.0815 -20.0604 -19.9616 -19.8869 -19.6827 -19.6267
   -19.5467 -19.4055 -19.3394 -19.1479  -8.0766  -8.0450  -8.0032  -7.9330
    -7.8898  -7.8008  -7.7256  -7.5965  -7.5701  -7.5413  -7.4652  -7.3833
    -6.2286  -5.5710  -5.4800  -5.1498  -5.1081  -4.6023  -4.2522  -4.0798
    -4.0295  -3.4938  -3.4178  -2.9295  -2.5761  -2.4890  -2.4440  -2.4123
    -2.3491  -2.2553  -2.1889  -2.1518  -2.0753  -2.0470  -1.9668  -1.9199

          k = 0.4494-0.2595-0.9332 ( 27756 PWs)   bands (ev):

   -20.3188 -20.3156 -20.1538 -20.0948 -19.9500 -19.8520 -19.7239 -19.6032
   -19.4529 -19.3784 -19.3259 -19.2145  -8.0583  -8.0281  -8.0007  -7.9134
    -7.8755  -7.8041  -7.7583  -7.6690  -7.5951  -7.5456  -7.4510  -7.3989
    -5.9054  -5.7388  -5.5250  -5.3561  -5.0425  -4.5955  -4.3366  -4.0168
    -3.7357  -3.4846  -3.4510  -3.0498  -2.5742  -2.5104  -2.4688  -2.4240
    -2.3915  -2.2850  -2.1747  -2.1410  -2.0798  -2.0499  -1.9621  -1.8744

          k = 0.2996-0.3460-0.6221 ( 27742 PWs)   bands (ev):

   -20.2845 -20.2508 -20.1375 -20.1267 -19.9790 -19.9691 -19.6350 -19.6186
   -19.4360 -19.4186 -19.3048 -19.2348  -8.0654  -8.0078  -7.9737  -7.9480
    -7.9153  -7.7675  -7.6778  -7.6600  -7.5640  -7.5119  -7.4041  -7.3907
    -5.8520  -5.8041  -5.4985  -5.4215  -4.9526  -4.9041  -4.1372  -4.0522
    -3.6925  -3.6643  -3.3425  -3.1145  -2.6464  -2.5254  -2.4792  -2.4714
    -2.3770  -2.3012  -2.1700  -2.1406  -2.1216  -2.0268  -2.0067  -1.8744

          k = 0.0000 0.0000-1.8663 ( 27684 PWs)   bands (ev):

   -20.2339 -20.1923 -20.1294 -20.1294 -20.0720 -20.0720 -19.5346 -19.5346
   -19.4916 -19.4916 -19.2997 -19.2131  -8.0680  -7.9463  -7.9463  -7.9348
    -7.9348  -7.7677  -7.7106  -7.6687  -7.5341  -7.5341  -7.4606  -7.4606
    -5.8538  -5.6392  -5.3072  -5.3072  -5.1826  -5.1826  -3.8781  -3.8781
    -3.8405  -3.8405  -3.2897  -3.0931  -2.6142  -2.5247  -2.5247  -2.5203
    -2.5203  -2.2588  -2.1370  -2.0870  -2.0870  -2.0546  -2.0546  -1.8251

          k = 0.2996-0.3460 0.3111 ( 27803 PWs)   bands (ev):

   -20.4164 -20.2323 -20.1156 -20.0820 -19.9690 -19.8922 -19.6721 -19.5450
   -19.5192 -19.3921 -19.3438 -19.2053  -8.0729  -8.0395  -7.9983  -7.9282
    -7.9051  -7.8388  -7.7423  -7.6653  -7.6151  -7.4354  -7.4018  -7.3625
    -6.1039  -5.6991  -5.5371  -5.1964  -5.1455  -4.6744  -4.2486  -3.8935
    -3.7673  -3.6121  -3.4818  -3.0487  -2.5563  -2.4696  -2.4327  -2.3693
    -2.3352  -2.2538  -2.2098  -2.1851  -2.1228  -2.0471  -1.9639  -1.9053

     highest occupied level (ev):    -1.8251

!    total energy              =    -413.96557293 Ry
     estimated scf accuracy    <          3.8E-10 Ry

     The total energy is the sum of the following terms:
     one-electron contribution =    -279.01034551 Ry
     hartree contribution      =     175.25226717 Ry
     xc contribution           =    -101.66373796 Ry
     ewald contribution        =    -208.54375662 Ry

     convergence has been achieved in   4 iterations

     Forces acting on atoms (cartesian axes, Ry/au):

     atom    1 type  2   force =     0.00000027   -0.00005694    0.00010460
     atom    2 type  2   force =    -0.00000027    0.00005694   -0.00010460
     atom    3 type  2   force =     0.00004918    0.00002871    0.00010460
     atom    4 type  2   force =    -0.00004918   -0.00002871   -0.00010460
     atom    5 type  2   force =    -0.00004945    0.00002824    0.00010460
     atom    6 type  2   force =     0.00004945   -0.00002824   -0.00010460
     atom    7 type  2   force =    -0.00000867    0.00002772   -0.00004388
     atom    8 type  2   force =     0.00000867   -0.00002772    0.00004388
     atom    9 type  2   force =    -0.00001967   -0.00002137   -0.00004388
     atom   10 type  2   force =     0.00001967    0.00002137    0.00004388
     atom   11 type  2   force =     0.00002834   -0.00000635   -0.00004388
     atom   12 type  2   force =    -0.00002834    0.00000635    0.00004388
     atom   13 type  1   force =     0.00004601    0.00000344    0.00004384
     atom   14 type  1   force =    -0.00004601   -0.00000344   -0.00004384
     atom   15 type  1   force =    -0.00002598    0.00003813    0.00004384
     atom   16 type  1   force =     0.00002598   -0.00003813   -0.00004384
     atom   17 type  1   force =    -0.00002003   -0.00004157    0.00004384
     atom   18 type  1   force =     0.00002003    0.00004157   -0.00004384
     atom   19 type  1   force =     0.00001785    0.00000171   -0.00008784
     atom   20 type  1   force =    -0.00001785   -0.00000171    0.00008784
     atom   21 type  1   force =    -0.00001041    0.00001460   -0.00008784
     atom   22 type  1   force =     0.00001041   -0.00001460    0.00008784
     atom   23 type  1   force =    -0.00000744   -0.00001632   -0.00008784
     atom   24 type  1   force =     0.00000744    0.00001632    0.00008784
     atom   25 type  1   force =     0.00006151    0.00000902    0.00004662
     atom   26 type  1   force =    -0.00006151   -0.00000902   -0.00004662
     atom   27 type  1   force =    -0.00003856    0.00004876    0.00004662
     atom   28 type  1   force =     0.00003856   -0.00004876   -0.00004662
     atom   29 type  1   force =    -0.00002295   -0.00005778    0.00004662
     atom   30 type  1   force =     0.00002295    0.00005778   -0.00004662
     atom   31 type  1   force =    -0.00001370   -0.00004063   -0.00000029
     atom   32 type  1   force =     0.00001370    0.00004063    0.00000029
     atom   33 type  1   force =     0.00004204    0.00000845   -0.00000029
     atom   34 type  1   force =    -0.00004204   -0.00000845    0.00000029
     atom   35 type  1   force =    -0.00002834    0.00003218   -0.00000029
     atom   36 type  1   force =     0.00002834   -0.00003218    0.00000029

     Total force =     0.000471     Total SCF correction =     0.000040


     Computing stress (Cartesian axis) and pressure

          total   stress  (Ry/bohr**3)                   (kbar)     P=        2.25
   0.00000505  -0.00000000   0.00000000            0.74       -0.00        0.00
   0.00000000   0.00000505   0.00000000            0.00        0.74        0.00
  -0.00000000   0.00000000   0.00003576           -0.00        0.00        5.26

     Energy error            =      5.8E-07 Ry
     Gradient error          =      1.0E-04 Ry/Bohr

     number of scf cycles    =  50
     number of bfgs steps    =  49

     energy             old  =    -413.9655723587 Ry
     energy             new  =    -413.9655729340 Ry

     CASE: energy            _new < energy            _old

     new trust radius        =       0.0012573259 bohr

     The maximum number of steps has been reached.

     End of BFGS Geometry Optimization

ATOMIC_POSITIONS (crystal)
O                0.2684738500        0.0194028987        0.8558344478
O                0.7315261500        0.9805971123        0.1441655222
O                0.8558344478        0.2684738500        0.0194028987
O                0.1441655222        0.7315261500        0.9805971123
O                0.0194028987        0.8558344478        0.2684738500
O                0.9805971123        0.1441655222        0.7315261500
O                0.4815773585        0.7500140396        0.3330774794
O                0.5184226415        0.2499859604        0.6669224906
O                0.3330774794        0.4815773585        0.7500140396
O                0.6669224906        0.5184226415        0.2499859604
O                0.7500140396        0.3330774794        0.4815773585
O                0.2499859604        0.6669224906        0.5184226415
H                0.1398482597        0.0384778846        0.7922219607
H                0.8601517263        0.9615221074        0.2077780393
H                0.7922219607        0.1398482597        0.0384778846
H                0.2077780393        0.8601517263        0.9615221074
H                0.0384778846        0.7922219607        0.1398482597
H                0.9615221074        0.2077780393        0.8601517263
H                0.4275935725        0.1967367538        0.9915252541
H                0.5724064275        0.8032632612        0.0084747249
H                0.9915252541        0.4275935725        0.1967367538
H                0.0084747249        0.5724064275        0.8032632612
H                0.1967367538        0.9915252541        0.4275935725
H                0.8032632612        0.0084747249        0.5724064275
H                0.7290874501        0.4146225940        0.4079264293
H                0.2709125499        0.5853773760        0.5920736007
H                0.4079264293        0.7290874501        0.4146225940
H                0.5920736007        0.2709125499        0.5853773760
H                0.4146225940        0.4079264293        0.7290874501
H                0.5853773760        0.5920736007        0.2709125499
H                0.7438901380        0.2009241760        0.3705380805
H                0.2561098620        0.7990758090        0.6294619195
H                0.3705380805        0.7438901380        0.2009241760
H                0.6294619195        0.2561098620        0.7990758090
H                0.2009241760        0.3705380805        0.7438901380
H                0.7990758090        0.6294619195        0.2561098620



     Writing config-only to output data dir ./iceII/iceII.save/ :
     XML data file
     NEW-OLD atomic charge density approx. for the potential

     Writing all to output data dir ./iceII/iceII.save/ :
     XML data file, charge density, pseudopotentials, collected wavefunctions

     init_run     :      0.88s CPU      0.96s WALL (       1 calls)
     electrons    :    261.35s CPU    265.61s WALL (      50 calls)
     update_pot   :      1.26s CPU      1.33s WALL (      50 calls)
     forces       :      5.87s CPU      5.91s WALL (      50 calls)
     stress       :     40.60s CPU     40.65s WALL (      50 calls)

     Called by init_run:
     wfcinit      :      0.33s CPU      0.35s WALL (       1 calls)
     potinit      :      0.03s CPU      0.06s WALL (       1 calls)
     hinit0       :      0.39s CPU      0.40s WALL (       1 calls)

     Called by electrons:
     c_bands      :    221.30s CPU    223.40s WALL (     308 calls)
     sum_band     :     31.80s CPU     32.02s WALL (     308 calls)
     v_of_rho     :      6.38s CPU      6.52s WALL (     321 calls)
     newd         :      1.07s CPU      1.09s WALL (     321 calls)
     mix_rho      :      0.71s CPU      0.72s WALL (     308 calls)

     Called by c_bands:
     init_us_2    :      3.67s CPU      3.82s WALL (    2868 calls)
     cegterg      :    213.93s CPU    215.30s WALL (    1232 calls)

     Called by *egterg:
     cdiaghg      :     16.58s CPU     16.63s WALL (    4218 calls)
     h_psi        :    163.38s CPU    164.65s WALL (    4570 calls)
     s_psi        :      6.69s CPU      6.70s WALL (    4570 calls)
     g_psi        :      0.43s CPU      0.44s WALL (    3334 calls)

     Called by h_psi:
     h_psi:calbec :     11.11s CPU     11.18s WALL (    4570 calls)
     vloc_psi     :    144.24s CPU    145.40s WALL (    4570 calls)
     add_vuspsi   :      6.95s CPU      6.98s WALL (    4570 calls)

     General routines
     calbec       :     16.23s CPU     16.34s WALL (    6802 calls)
     fft          :      4.32s CPU      4.45s WALL (    4019 calls)
     ffts         :      0.35s CPU      0.35s WALL (     308 calls)
     fftw         :    151.11s CPU    152.24s WALL (  416650 calls)
     davcio       :      0.00s CPU      0.00s WALL (       4 calls)

     Parallel routines

     PWSCF        :   5m13.72s CPU   5m19.25s WALL


   This run was terminated on:  18:10:24  31Mar2026            

=------------------------------------------------------------------------------=
   JOB DONE.
=------------------------------------------------------------------------------=
