
     Program PWSCF v.7.3.1 starts on 23Mar2026 at 17:55:22 

     This program is part of the open-source Quantum ESPRESSO suite
     for quantum simulation of materials; please cite
         "P. Giannozzi et al., J. Phys.:Condens. Matter 21 395502 (2009);
         "P. Giannozzi et al., J. Phys.:Condens. Matter 29 465901 (2017);
         "P. Giannozzi et al., J. Chem. Phys. 152 154105 (2020);
          URL http://www.quantum-espresso.org", 
     in publications or presentations arising from this work. More details at
     http://www.quantum-espresso.org/quote

     Parallel version (MPI), running on   128 processors

     MPI processes distributed on     1 nodes
     242952 MiB available memory on the printing compute node when the environment starts

     Waiting for input...
     Reading input from standard input

     Current dimensions of program PWSCF are:
     Max number of different atomic species (ntypx) = 10
     Max number of k-points (npk) =  40000
     Max angular momentum in pseudopotentials (lmaxx) =  4

     K-points division:     npool     =       4
     R & G space division:  proc/nbgrp/npool/nimage =      32
     Subspace diagonalization in iterative solution of the eigenvalue problem:
     a serial algorithm will be used


     Parallelization info
     --------------------
     sticks:   dense  smooth     PW     G-vecs:    dense   smooth      PW
     Min         171     171     50                 7006     7006    1119
     Max         172     172     51                 7009     7009    1121
     Sum        5493    5493   1621               224237   224237   35851

     Using Slab Decomposition



     bravais-lattice index     =            5
     lattice parameter (alat)  =      14.4374  a.u.
     unit-cell volume          =    1944.2950 (a.u.)^3
     number of atoms/cell      =           36
     number of atomic types    =            2
     number of electrons       =        96.00
     number of Kohn-Sham states=           48
     kinetic-energy cutoff     =      90.0000  Ry
     charge density cutoff     =     360.0000  Ry
     scf convergence threshold =      1.0E-07
     mixing beta               =       0.7000
     number of iterations used =            8  plain     mixing
     Exchange-correlation=  SLA  PW   PBE  PBE
                           (   1   4   3   4   0   0   0)

     celldm(1)=  14.437431  celldm(2)=   0.000000  celldm(3)=   0.000000
     celldm(4)=  -0.392337  celldm(5)=   0.000000  celldm(6)=   0.000000

     crystal axes: (cart. coord. in units of alat)
               a(1) = (   0.834367  -0.481722   0.267909 )  
               a(2) = (   0.000000   0.963444   0.267909 )  
               a(3) = (  -0.834367  -0.481722   0.267909 )  

     reciprocal axes: (cart. coord. in units 2 pi/alat)
               b(1) = (  0.599257 -0.345981  1.244203 )  
               b(2) = (  0.000000  0.691962  1.244203 )  
               b(3) = ( -0.599257 -0.345981  1.244203 )  


     PseudoPot. # 1 for H  read from file:
     ./H.pbe-van_ak.UPF
     MD5 check sum: 077eb6d537518a38cb46c6de387227b7
     Pseudo is Ultrasoft, Zval =  1.0
     Generated by new atomic code, or converted to UPF format
     Using radial grid of  615 points,  1 beta functions with: 
                l(1) =   0
     Q(r) pseudized with  8 coefficients,  rinner =    0.800

     PseudoPot. # 2 for O  read from file:
     ./O.pbe-van_ak.UPF
     MD5 check sum: 78c19812648e8988a0fe644b0f25305e
     Pseudo is Ultrasoft, Zval =  6.0
     Generated by new atomic code, or converted to UPF format
     Using radial grid of  737 points,  4 beta functions with: 
                l(1) =   0
                l(2) =   0
                l(3) =   1
                l(4) =   1
     Q(r) pseudized with  8 coefficients,  rinner =    0.800   0.800   0.800


     atomic species   valence    mass     pseudopotential
     H                 1.00     1.00800     H ( 1.00)
     O                 6.00    16.00000     O ( 1.00)

      6 Sym. Ops., with inversion, found



   Cartesian axes

     site n.     atom                  positions (alat units)
         1        O      tau(   1) = (  -0.4910119  -0.5205722   0.3052394  )
         2        O      tau(   2) = (   0.4910119   0.5205722   0.4984877  )
         3        O      tau(   3) = (   0.6963347  -0.1649427   0.3052394  )
         4        O      tau(   4) = (  -0.6963347   0.1649427   0.4984877  )
         5        O      tau(   5) = (  -0.2053228   0.6855149   0.3052394  )
         6        O      tau(   6) = (   0.2053228  -0.6855149   0.4984877  )
         7        O      tau(   7) = (   0.1229870   0.3303028   0.4196306  )
         8        O      tau(   8) = (  -0.1229870  -0.3303028   0.3840965  )
         9        O      tau(   9) = (  -0.3475441  -0.0586415   0.4196306  )
        10        O      tau(  10) = (   0.3475441   0.0586415   0.3840965  )
        11        O      tau(  11) = (   0.2245571  -0.2716613   0.4196306  )
        12        O      tau(  12) = (  -0.2245571   0.2716612   0.3840965  )
        13        H      tau(  13) = (  -0.5446961  -0.4126715   0.2597134  )
        14        H      tau(  14) = (   0.5446961   0.4126715   0.5440137  )
        15        H      tau(  15) = (   0.6297321  -0.2653849   0.2597134  )
        16        H      tau(  16) = (  -0.6297321   0.2653849   0.5440137  )
        17        H      tau(  17) = (  -0.0850360   0.6780564   0.2597134  )
        18        H      tau(  18) = (   0.0850360  -0.6780564   0.5440137  )
        19        H      tau(  19) = (  -0.4726389  -0.4926041   0.4288765  )
        20        H      tau(  20) = (   0.4726389   0.4926042   0.3748506  )
        21        H      tau(  21) = (   0.6629272  -0.1630152   0.4288765  )
        22        H      tau(  22) = (  -0.6629272   0.1630152   0.3748506  )
        23        H      tau(  23) = (  -0.1902883   0.6556194   0.4288765  )
        24        H      tau(  24) = (   0.1902883  -0.6556194   0.3748506  )
        25        H      tau(  25) = (   0.2676988  -0.1507235   0.4151121  )
        26        H      tau(  26) = (  -0.2676988   0.1507234   0.3886151  )
        27        H      tau(  27) = (  -0.0033191   0.3071957   0.4151121  )
        28        H      tau(  28) = (   0.0033191  -0.3071957   0.3886151  )
        29        H      tau(  29) = (  -0.2643797  -0.1564722   0.4151121  )
        30        H      tau(  30) = (   0.2643797   0.1564723   0.3886151  )
        31        H      tau(  31) = (   0.3102941  -0.3416444   0.3555952  )
        32        H      tau(  32) = (  -0.3102941   0.3416444   0.4481319  )
        33        H      tau(  33) = (   0.1407257   0.4395448   0.3555952  )
        34        H      tau(  34) = (  -0.1407257  -0.4395448   0.4481319  )
        35        H      tau(  35) = (  -0.4510198  -0.0979003   0.3555952  )
        36        H      tau(  36) = (   0.4510198   0.0979003   0.4481319  )

     number of k points=    14
                       cart. coord. in units 2pi/alat
        k(    1) = (   0.0000000   0.0000000   0.0000000), wk =   0.0312500
        k(    2) = (  -0.1498141  -0.0864952   0.3110508), wk =   0.1875000
        k(    3) = (   0.2996283   0.1729905  -0.6221017), wk =   0.0937500
        k(    4) = (  -0.1498141   0.0864952   0.6221017), wk =   0.1875000
        k(    5) = (   0.2996283   0.3459809  -0.3110508), wk =   0.1875000
        k(    6) = (   0.1498141   0.2594857   0.0000000), wk =   0.1875000
        k(    7) = (   0.2996283  -0.1729905  -1.2442034), wk =   0.0937500
        k(    8) = (   0.0000000   0.0000000   0.9331525), wk =   0.0625000
        k(    9) = (   0.4494424   0.2594857   0.0000000), wk =   0.1875000
        k(   10) = (   0.2996283   0.1729905   0.3110508), wk =   0.1875000
        k(   11) = (   0.4494424  -0.2594857  -0.9331525), wk =   0.1875000
        k(   12) = (   0.2996283  -0.3459809  -0.6221017), wk =   0.1875000
        k(   13) = (   0.0000000   0.0000000  -1.8663050), wk =   0.0312500
        k(   14) = (   0.2996283  -0.3459809   0.3110508), wk =   0.1875000

     Dense  grid:   224237 G-vectors     FFT dimensions: (  90,  90,  90)

     Estimated max dynamical RAM per process >      14.84 MB

     Estimated total dynamical RAM >       1.69 GB

     Initial potential from superposition of free atoms

     starting charge      95.9998, renormalised to      96.0000
     Starting wfcs are   72 randomized atomic wfcs

     total cpu time spent up to now is        1.2 secs

     per-process dynamical memory:    19.2 Mb

     Self-consistent Calculation

     iteration #  1     ecut=    90.00 Ry     beta= 0.70
     Davidson diagonalization with overlap
     ethr =  1.00E-02,  avg # of iterations =  2.0

     total cpu time spent up to now is        2.0 secs

     total energy              =    -412.31800661 Ry
     estimated scf accuracy    <       4.01270064 Ry

     iteration #  2     ecut=    90.00 Ry     beta= 0.70
     Davidson diagonalization with overlap
     ethr =  4.18E-03,  avg # of iterations =  3.0

     total cpu time spent up to now is        3.0 secs

     total energy              =    -413.59568329 Ry
     estimated scf accuracy    <       2.21427346 Ry

     iteration #  3     ecut=    90.00 Ry     beta= 0.70
     Davidson diagonalization with overlap
     ethr =  2.31E-03,  avg # of iterations =  2.0

     negative rho (up, down):  2.744E-08 0.000E+00

     total cpu time spent up to now is        3.8 secs

     total energy              =    -413.87970266 Ry
     estimated scf accuracy    <       0.08778832 Ry

     iteration #  4     ecut=    90.00 Ry     beta= 0.70
     Davidson diagonalization with overlap
     ethr =  9.14E-05,  avg # of iterations =  4.0

     negative rho (up, down):  1.108E-07 0.000E+00

     total cpu time spent up to now is        5.0 secs

     total energy              =    -413.94683973 Ry
     estimated scf accuracy    <       0.10800815 Ry

     iteration #  5     ecut=    90.00 Ry     beta= 0.70
     Davidson diagonalization with overlap
     ethr =  9.14E-05,  avg # of iterations =  2.0

     negative rho (up, down):  1.350E-07 0.000E+00

     total cpu time spent up to now is        5.7 secs

     total energy              =    -413.95118413 Ry
     estimated scf accuracy    <       0.01540441 Ry

     iteration #  6     ecut=    90.00 Ry     beta= 0.70
     Davidson diagonalization with overlap
     ethr =  1.60E-05,  avg # of iterations =  2.0

     negative rho (up, down):  1.642E-07 0.000E+00

     total cpu time spent up to now is        6.4 secs

     total energy              =    -413.95066547 Ry
     estimated scf accuracy    <       0.00419098 Ry

     iteration #  7     ecut=    90.00 Ry     beta= 0.70
     Davidson diagonalization with overlap
     ethr =  4.37E-06,  avg # of iterations =  2.4

     negative rho (up, down):  1.587E-07 0.000E+00

     total cpu time spent up to now is        7.4 secs

     total energy              =    -413.95288149 Ry
     estimated scf accuracy    <       0.00056080 Ry

     iteration #  8     ecut=    90.00 Ry     beta= 0.70
     Davidson diagonalization with overlap
     ethr =  5.84E-07,  avg # of iterations =  2.1

     negative rho (up, down):  1.511E-07 0.000E+00

     total cpu time spent up to now is        8.1 secs

     total energy              =    -413.95250434 Ry
     estimated scf accuracy    <       0.00112416 Ry

     iteration #  9     ecut=    90.00 Ry     beta= 0.70
     Davidson diagonalization with overlap
     ethr =  5.84E-07,  avg # of iterations =  2.0

     negative rho (up, down):  1.457E-07 0.000E+00

     total cpu time spent up to now is        8.9 secs

     total energy              =    -413.95252969 Ry
     estimated scf accuracy    <       0.00017835 Ry

     iteration # 10     ecut=    90.00 Ry     beta= 0.70
     Davidson diagonalization with overlap
     ethr =  1.86E-07,  avg # of iterations =  2.0

     negative rho (up, down):  1.449E-07 0.000E+00

     total cpu time spent up to now is        9.7 secs

     total energy              =    -413.95255792 Ry
     estimated scf accuracy    <       0.00001998 Ry

     iteration # 11     ecut=    90.00 Ry     beta= 0.70
     Davidson diagonalization with overlap
     ethr =  2.08E-08,  avg # of iterations =  2.1

     negative rho (up, down):  1.435E-07 0.000E+00

     total cpu time spent up to now is       10.5 secs

     total energy              =    -413.95255891 Ry
     estimated scf accuracy    <       0.00000670 Ry

     iteration # 12     ecut=    90.00 Ry     beta= 0.70
     Davidson diagonalization with overlap
     ethr =  6.98E-09,  avg # of iterations =  3.0

     negative rho (up, down):  1.432E-07 0.000E+00

     total cpu time spent up to now is       11.4 secs

     total energy              =    -413.95256055 Ry
     estimated scf accuracy    <       0.00000016 Ry

     iteration # 13     ecut=    90.00 Ry     beta= 0.70
     Davidson diagonalization with overlap
     ethr =  1.64E-10,  avg # of iterations =  5.0

     negative rho (up, down):  1.436E-07 0.000E+00

     total cpu time spent up to now is       12.6 secs

     total energy              =    -413.95256072 Ry
     estimated scf accuracy    <       0.00000031 Ry

     iteration # 14     ecut=    90.00 Ry     beta= 0.70
     Davidson diagonalization with overlap
     ethr =  1.64E-10,  avg # of iterations =  2.6

     negative rho (up, down):  1.438E-07 0.000E+00

     total cpu time spent up to now is       13.5 secs

     End of self-consistent calculation

          k = 0.0000 0.0000 0.0000 ( 28031 PWs)   bands (ev):

   -20.8397 -20.3345 -20.3345 -20.0994 -20.0994 -20.0839 -20.0393 -20.0393
   -20.0094 -19.6982 -19.6982 -19.3473  -8.3403  -8.2120  -8.1977  -8.1977
    -8.1031  -8.1031  -7.7782  -7.7782  -7.7672  -7.7672  -7.7660  -7.7086
    -6.6256  -5.4478  -5.4478  -4.8761  -4.8761  -4.6073  -4.6073  -4.5418
    -4.3110  -3.6354  -3.6354  -2.8822  -2.5765  -2.5765  -2.4804  -2.3704
    -2.3704  -2.3086  -2.2291  -2.2258  -2.2258  -2.1192  -2.0858  -2.0858

          k =-0.1498-0.0865 0.3111 ( 28034 PWs)   bands (ev):

   -20.7604 -20.3719 -20.3227 -20.2541 -20.2147 -20.1392 -19.9930 -19.9310
   -19.8647 -19.7082 -19.6622 -19.4106  -8.3025  -8.2404  -8.2062  -8.1826
    -8.1003  -8.0572  -7.8567  -7.8147  -7.7810  -7.7204  -7.6783  -7.6519
    -6.4257  -5.6255  -5.4743  -5.1696  -4.9793  -4.7116  -4.4266  -4.3419
    -4.1389  -3.6394  -3.5655  -3.0297  -2.6649  -2.6032  -2.5040  -2.4472
    -2.4228  -2.3551  -2.2776  -2.2163  -2.1781  -2.1453  -2.0889  -2.0750

          k = 0.2996 0.1730-0.6221 ( 27976 PWs)   bands (ev):

   -20.5684 -20.5370 -20.3505 -20.3197 -20.2355 -20.2045 -19.9404 -19.8962
   -19.7609 -19.6909 -19.5973 -19.5408  -8.2588  -8.2484  -8.2036  -8.1868
    -8.1097  -8.0347  -7.8601  -7.8323  -7.7889  -7.7326  -7.6078  -7.5910
    -6.0378  -5.9134  -5.5033  -5.4645  -4.9551  -4.9086  -4.2796  -4.2272
    -3.7603  -3.7347  -3.5389  -3.2793  -2.7393  -2.6266  -2.5229  -2.5199
    -2.4508  -2.3510  -2.3338  -2.2508  -2.2207  -2.1336  -2.0571  -2.0547

          k =-0.1498 0.0865 0.6221 ( 28020 PWs)   bands (ev):

   -20.6036 -20.4379 -20.4261 -20.2966 -20.2705 -20.1952 -19.9373 -19.8456
   -19.7981 -19.6694 -19.6436 -19.5183  -8.2582  -8.2349  -8.2205  -8.1966
    -8.0961  -8.0258  -7.8572  -7.8377  -7.8306  -7.6675  -7.6315  -7.5990
    -6.0759  -5.7720  -5.7226  -5.2562  -5.0955  -4.8908  -4.3081  -4.0535
    -3.9657  -3.6282  -3.5362  -3.3066  -2.7285  -2.6502  -2.5261  -2.4820
    -2.4204  -2.3968  -2.3411  -2.2331  -2.2199  -2.1426  -2.0781  -2.0329

          k = 0.2996 0.3460-0.3111 ( 28034 PWs)   bands (ev):

   -20.6516 -20.4715 -20.3938 -20.3195 -20.2285 -20.1522 -19.9572 -19.8480
   -19.7528 -19.7325 -19.6195 -19.5047  -8.2699  -8.2610  -8.1839  -8.1701
    -8.1055  -8.0458  -7.9336  -7.9034  -7.8352  -7.6700  -7.6543  -7.6001
    -6.1246  -5.7607  -5.5499  -5.2925  -5.2630  -4.6851  -4.2554  -4.1092
    -3.9817  -3.6769  -3.5351  -3.2328  -2.6564  -2.6007  -2.5365  -2.4635
    -2.4174  -2.3383  -2.3059  -2.2803  -2.1962  -2.1850  -2.0558  -2.0005

          k = 0.1498 0.2595 0.0000 ( 28020 PWs)   bands (ev):

   -20.7802 -20.4165 -20.3552 -20.2269 -20.1678 -20.0899 -20.0109 -19.9379
   -19.8605 -19.7081 -19.6675 -19.4012  -8.3156  -8.2372  -8.2008  -8.1698
    -8.0949  -8.0832  -7.9265  -7.8691  -7.7960  -7.7211  -7.6963  -7.6599
    -6.4319  -5.5132  -5.4440  -5.1945  -5.1547  -4.5417  -4.4008  -4.2596
    -4.1793  -3.6665  -3.6272  -2.9731  -2.5766  -2.5541  -2.5231  -2.4273
    -2.3793  -2.3405  -2.2708  -2.2511  -2.2007  -2.1501  -2.0483  -2.0322

          k = 0.2996-0.1730-1.2442 ( 28074 PWs)   bands (ev):

   -20.6329 -20.6015 -20.3705 -20.2838 -20.1626 -20.1234 -19.9339 -19.9336
   -19.7569 -19.7430 -19.5600 -19.5195  -8.2815  -8.2512  -8.1873  -8.1651
    -8.0721  -8.0716  -8.0169  -7.9330  -7.8208  -7.7134  -7.6792  -7.6259
    -5.9700  -5.9475  -5.4870  -5.4121  -5.0591  -4.6757  -4.2162  -4.1477
    -3.9427  -3.7944  -3.4354  -3.2296  -2.5819  -2.5462  -2.5198  -2.4649
    -2.3919  -2.3360  -2.3216  -2.2484  -2.2343  -2.1617  -2.0103  -1.9992

          k = 0.0000 0.0000 0.9332 ( 28029 PWs)   bands (ev):

   -20.5246 -20.5246 -20.4747 -20.3965 -20.1831 -20.1831 -19.8685 -19.8685
   -19.7232 -19.6361 -19.6361 -19.6129  -8.2573  -8.2572  -8.2013  -8.1520
    -8.0945  -8.0945  -7.9682  -7.8855  -7.8855  -7.6186  -7.6186  -7.5828
    -5.8495  -5.8495  -5.7749  -5.4593  -4.9982  -4.9982  -4.0070  -4.0070
    -3.8766  -3.6087  -3.6087  -3.4810  -2.6069  -2.6069  -2.5009  -2.4678
    -2.3879  -2.3879  -2.3128  -2.2602  -2.2602  -2.1254  -2.1254  -1.9718

          k = 0.4494 0.2595 0.0000 ( 28054 PWs)   bands (ev):

   -20.6696 -20.4848 -20.4823 -20.2848 -20.1219 -20.0919 -19.9826 -19.9446
   -19.7636 -19.6745 -19.6262 -19.4950  -8.2786  -8.2421  -8.2146  -8.1332
    -8.1087  -8.0403  -8.0339  -7.9074  -7.8589  -7.6928  -7.6596  -7.6463
    -6.1057  -5.6577  -5.6128  -5.4723  -5.0176  -4.6718  -4.2875  -4.1748
    -3.8577  -3.6862  -3.5814  -3.1912  -2.5651  -2.5484  -2.5325  -2.4597
    -2.4128  -2.3503  -2.3053  -2.2756  -2.1914  -2.1356  -2.0645  -1.9759

          k = 0.2996 0.1730 0.3111 ( 28034 PWs)   bands (ev):

   -20.7046 -20.4226 -20.3387 -20.3174 -20.2189 -20.1521 -19.9580 -19.9135
   -19.8203 -19.7035 -19.6306 -19.4517  -8.2837  -8.2447  -8.2098  -8.1452
    -8.1125  -8.0235  -7.9346  -7.8147  -7.7853  -7.7638  -7.7011  -7.6305
    -6.2541  -5.6164  -5.5525  -5.2205  -5.1673  -4.6908  -4.3398  -4.1790
    -4.1328  -3.6222  -3.5518  -3.0902  -2.6856  -2.5894  -2.5426  -2.5046
    -2.4358  -2.3499  -2.2822  -2.2566  -2.1798  -2.1464  -2.0660  -2.0159

          k = 0.4494-0.2595-0.9332 ( 28029 PWs)   bands (ev):

   -20.5595 -20.5566 -20.4042 -20.3502 -20.2099 -20.1199 -19.9956 -19.8864
   -19.7372 -19.6814 -19.6235 -19.5065  -8.2618  -8.2376  -8.2110  -8.1310
    -8.0979  -8.0072  -7.9755  -7.8814  -7.8068  -7.7640  -7.6861  -7.6415
    -5.9474  -5.7803  -5.6002  -5.4102  -5.1196  -4.6804  -4.4283  -4.1246
    -3.8492  -3.6107  -3.5762  -3.2000  -2.6851  -2.6075  -2.5692  -2.5110
    -2.4778  -2.3799  -2.2752  -2.2380  -2.1838  -2.1530  -2.0638  -1.9695

          k = 0.2996-0.3460-0.6221 ( 28014 PWs)   bands (ev):

   -20.5294 -20.4952 -20.3874 -20.3797 -20.2387 -20.2273 -19.9164 -19.8952
   -19.7280 -19.7058 -19.6162 -19.5217  -8.2665  -8.2121  -8.1867  -8.1692
    -8.1372  -7.9841  -7.8918  -7.8634  -7.7826  -7.7427  -7.6480  -7.6366
    -5.8936  -5.8589  -5.5487  -5.4882  -5.0146  -4.9703  -4.2308  -4.1531
    -3.8087  -3.7792  -3.4710  -3.2652  -2.7577  -2.6264  -2.5772  -2.5600
    -2.4707  -2.3936  -2.2672  -2.2418  -2.2261  -2.1265  -2.1043  -1.9702

          k = 0.0000 0.0000-1.8663 ( 28056 PWs)   bands (ev):

   -20.4812 -20.4428 -20.3855 -20.3855 -20.3184 -20.3184 -19.8302 -19.8302
   -19.7661 -19.7661 -19.6153 -19.5007  -8.2678  -8.1651  -8.1651  -8.1577
    -8.1577  -7.9583  -7.9227  -7.8822  -7.7547  -7.7547  -7.6983  -7.6983
    -5.8930  -5.7283  -5.3616  -5.3616  -5.2468  -5.2468  -3.9919  -3.9919
    -3.9405  -3.9405  -3.4166  -3.2447  -2.7349  -2.6187  -2.6187  -2.6049
    -2.6049  -2.3517  -2.2389  -2.1782  -2.1782  -2.1661  -2.1661  -1.9225

          k = 0.2996-0.3460 0.3111 ( 28034 PWs)   bands (ev):

   -20.6511 -20.4789 -20.3708 -20.3383 -20.2260 -20.1532 -19.9523 -19.8394
   -19.7992 -19.6800 -19.6391 -19.5036  -8.2794  -8.2426  -8.1980  -8.1486
    -8.1214  -8.0490  -7.9493  -7.8875  -7.8319  -7.6708  -7.6467  -7.6076
    -6.1290  -5.7378  -5.6016  -5.2624  -5.2163  -4.7499  -4.3377  -3.9976
    -3.8907  -3.7344  -3.6074  -3.2017  -2.6676  -2.5698  -2.5424  -2.4652
    -2.4218  -2.3457  -2.3047  -2.2864  -2.2274  -2.1422  -2.0610  -2.0025

     highest occupied level (ev):    -1.9225

!    total energy              =    -413.95256076 Ry
     estimated scf accuracy    <          8.2E-09 Ry

     The total energy is the sum of the following terms:
     one-electron contribution =    -283.87396391 Ry
     hartree contribution      =     177.31158179 Ry
     xc contribution           =    -102.01206791 Ry
     ewald contribution        =    -205.37811073 Ry

     convergence has been achieved in  14 iterations

     Forces acting on atoms (cartesian axes, Ry/au):

     atom    1 type  2   force =     0.00805116   -0.02911422   -0.01711630
     atom    2 type  2   force =    -0.00805116    0.02911422    0.01711630
     atom    3 type  2   force =     0.02118807    0.02152962   -0.01711630
     atom    4 type  2   force =    -0.02118807   -0.02152962    0.01711630
     atom    5 type  2   force =    -0.02923923    0.00758460   -0.01711630
     atom    6 type  2   force =     0.02923923   -0.00758460    0.01711630
     atom    7 type  2   force =     0.02346470   -0.01800682    0.01481937
     atom    8 type  2   force =    -0.02346470    0.01800682   -0.01481937
     atom    9 type  2   force =     0.00386202    0.02932443    0.01481937
     atom   10 type  2   force =    -0.00386202   -0.02932443   -0.01481937
     atom   11 type  2   force =    -0.02732671   -0.01131761    0.01481937
     atom   12 type  2   force =     0.02732671    0.01131761   -0.01481937
     atom   13 type  1   force =    -0.01189553    0.02345617   -0.01133348
     atom   14 type  1   force =     0.01189553   -0.02345617    0.01133348
     atom   15 type  1   force =    -0.01436587   -0.02202992   -0.01133348
     atom   16 type  1   force =     0.01436587    0.02202992    0.01133348
     atom   17 type  1   force =     0.02626141   -0.00142625   -0.01133348
     atom   18 type  1   force =    -0.02626141    0.00142625    0.01133348
     atom   19 type  1   force =     0.00599983    0.00478765    0.02952684
     atom   20 type  1   force =    -0.00599983   -0.00478765   -0.02952684
     atom   21 type  1   force =    -0.00714614    0.00280218    0.02952684
     atom   22 type  1   force =     0.00714614   -0.00280218   -0.02952684
     atom   23 type  1   force =     0.00114632   -0.00758983    0.02952684
     atom   24 type  1   force =    -0.00114632    0.00758983   -0.02952684
     atom   25 type  1   force =     0.00886769    0.02879652   -0.00015617
     atom   26 type  1   force =    -0.00886769   -0.02879652    0.00015617
     atom   27 type  1   force =    -0.02937236   -0.00671862   -0.00015617
     atom   28 type  1   force =     0.02937236    0.00671862    0.00015617
     atom   29 type  1   force =     0.02050467   -0.02207790   -0.00015617
     atom   30 type  1   force =    -0.02050467    0.02207790    0.00015617
     atom   31 type  1   force =     0.01922439   -0.01802899   -0.01507002
     atom   32 type  1   force =    -0.01922439    0.01802899    0.01507002
     atom   33 type  1   force =     0.00600137    0.02566330   -0.01507002
     atom   34 type  1   force =    -0.00600137   -0.02566330    0.01507002
     atom   35 type  1   force =    -0.02522576   -0.00763431   -0.01507002
     atom   36 type  1   force =     0.02522576    0.00763431    0.01507002

     Total force =     0.187836     Total SCF correction =     0.000036


     Computing stress (Cartesian axis) and pressure

          total   stress  (Ry/bohr**3)                   (kbar)     P=       39.20
   0.00026113   0.00000000   0.00000000           38.41        0.00        0.00
  -0.00000000   0.00026113   0.00000000           -0.00       38.41        0.00
  -0.00000000   0.00000000   0.00027708           -0.00        0.00       40.76


     Writing all to output data dir ./iceII/iceII.save/ :
     XML data file, charge density, pseudopotentials, collected wavefunctions

     init_run     :      0.94s CPU      0.99s WALL (       1 calls)
     electrons    :     12.17s CPU     12.40s WALL (       1 calls)
     forces       :      0.13s CPU      0.13s WALL (       1 calls)
     stress       :      0.82s CPU      0.84s WALL (       1 calls)

     Called by init_run:
     wfcinit      :      0.33s CPU      0.35s WALL (       1 calls)
     potinit      :      0.04s CPU      0.05s WALL (       1 calls)
     hinit0       :      0.40s CPU      0.41s WALL (       1 calls)

     Called by electrons:
     c_bands      :     10.22s CPU     10.33s WALL (      14 calls)
     sum_band     :      1.45s CPU      1.47s WALL (      14 calls)
     v_of_rho     :      0.32s CPU      0.35s WALL (      15 calls)
     newd         :      0.09s CPU      0.10s WALL (      15 calls)
     mix_rho      :      0.05s CPU      0.06s WALL (      14 calls)

     Called by c_bands:
     init_us_2    :      0.16s CPU      0.17s WALL (     124 calls)
     cegterg      :      9.75s CPU      9.82s WALL (      56 calls)

     Called by *egterg:
     cdiaghg      :      0.77s CPU      0.78s WALL (     205 calls)
     h_psi        :      7.68s CPU      7.73s WALL (     209 calls)
     s_psi        :      0.30s CPU      0.30s WALL (     209 calls)
     g_psi        :      0.02s CPU      0.02s WALL (     149 calls)

     Called by h_psi:
     h_psi:calbec :      0.52s CPU      0.53s WALL (     209 calls)
     vloc_psi     :      6.79s CPU      6.84s WALL (     209 calls)
     add_vuspsi   :      0.32s CPU      0.32s WALL (     209 calls)

     General routines
     calbec       :      0.71s CPU      0.71s WALL (     285 calls)
     fft          :      0.58s CPU      0.61s WALL (     173 calls)
     ffts         :      0.02s CPU      0.02s WALL (      14 calls)
     fftw         :      7.10s CPU      7.15s WALL (   19422 calls)

     Parallel routines

     PWSCF        :     14.48s CPU     15.03s WALL


   This run was terminated on:  17:55:37  23Mar2026            

=------------------------------------------------------------------------------=
   JOB DONE.
=------------------------------------------------------------------------------=
