
     Program PWSCF v.7.3.1 starts on 23Mar2026 at 17:55:40 

     This program is part of the open-source Quantum ESPRESSO suite
     for quantum simulation of materials; please cite
         "P. Giannozzi et al., J. Phys.:Condens. Matter 21 395502 (2009);
         "P. Giannozzi et al., J. Phys.:Condens. Matter 29 465901 (2017);
         "P. Giannozzi et al., J. Chem. Phys. 152 154105 (2020);
          URL http://www.quantum-espresso.org", 
     in publications or presentations arising from this work. More details at
     http://www.quantum-espresso.org/quote

     Parallel version (MPI), running on   128 processors

     MPI processes distributed on     1 nodes
     242920 MiB available memory on the printing compute node when the environment starts

     Waiting for input...
     Reading input from standard input

     Current dimensions of program PWSCF are:
     Max number of different atomic species (ntypx) = 10
     Max number of k-points (npk) =  40000
     Max angular momentum in pseudopotentials (lmaxx) =  4

     K-points division:     npool     =       4
     R & G space division:  proc/nbgrp/npool/nimage =      32
     Subspace diagonalization in iterative solution of the eigenvalue problem:
     a serial algorithm will be used


     Parallelization info
     --------------------
     sticks:   dense  smooth     PW     G-vecs:    dense   smooth      PW
     Min         171     171     50                 7042     7042    1125
     Max         172     172     51                 7046     7046    1127
     Sum        5501    5501   1625               225437   225437   36043

     Using Slab Decomposition



     bravais-lattice index     =            5
     lattice parameter (alat)  =      14.4668  a.u.
     unit-cell volume          =    1956.1988 (a.u.)^3
     number of atoms/cell      =           36
     number of atomic types    =            2
     number of electrons       =        96.00
     number of Kohn-Sham states=           48
     kinetic-energy cutoff     =      90.0000  Ry
     charge density cutoff     =     360.0000  Ry
     scf convergence threshold =      1.0E-07
     mixing beta               =       0.7000
     number of iterations used =            8  plain     mixing
     Exchange-correlation=  SLA  PW   PBE  PBE
                           (   1   4   3   4   0   0   0)

     celldm(1)=  14.466835  celldm(2)=   0.000000  celldm(3)=   0.000000
     celldm(4)=  -0.392337  celldm(5)=   0.000000  celldm(6)=   0.000000

     crystal axes: (cart. coord. in units of alat)
               a(1) = (   0.834367  -0.481722   0.267909 )  
               a(2) = (   0.000000   0.963444   0.267909 )  
               a(3) = (  -0.834367  -0.481722   0.267909 )  

     reciprocal axes: (cart. coord. in units 2 pi/alat)
               b(1) = (  0.599257 -0.345981  1.244203 )  
               b(2) = (  0.000000  0.691962  1.244203 )  
               b(3) = ( -0.599257 -0.345981  1.244203 )  


     PseudoPot. # 1 for H  read from file:
     ./H.pbe-van_ak.UPF
     MD5 check sum: 077eb6d537518a38cb46c6de387227b7
     Pseudo is Ultrasoft, Zval =  1.0
     Generated by new atomic code, or converted to UPF format
     Using radial grid of  615 points,  1 beta functions with: 
                l(1) =   0
     Q(r) pseudized with  8 coefficients,  rinner =    0.800

     PseudoPot. # 2 for O  read from file:
     ./O.pbe-van_ak.UPF
     MD5 check sum: 78c19812648e8988a0fe644b0f25305e
     Pseudo is Ultrasoft, Zval =  6.0
     Generated by new atomic code, or converted to UPF format
     Using radial grid of  737 points,  4 beta functions with: 
                l(1) =   0
                l(2) =   0
                l(3) =   1
                l(4) =   1
     Q(r) pseudized with  8 coefficients,  rinner =    0.800   0.800   0.800


     atomic species   valence    mass     pseudopotential
     H                 1.00     1.00800     H ( 1.00)
     O                 6.00    16.00000     O ( 1.00)

      6 Sym. Ops., with inversion, found



   Cartesian axes

     site n.     atom                  positions (alat units)
         1        O      tau(   1) = (  -0.4910119  -0.5205722   0.3052394  )
         2        O      tau(   2) = (   0.4910119   0.5205722   0.4984877  )
         3        O      tau(   3) = (   0.6963347  -0.1649427   0.3052394  )
         4        O      tau(   4) = (  -0.6963347   0.1649427   0.4984877  )
         5        O      tau(   5) = (  -0.2053228   0.6855149   0.3052394  )
         6        O      tau(   6) = (   0.2053228  -0.6855149   0.4984877  )
         7        O      tau(   7) = (   0.1229870   0.3303028   0.4196306  )
         8        O      tau(   8) = (  -0.1229870  -0.3303028   0.3840965  )
         9        O      tau(   9) = (  -0.3475441  -0.0586415   0.4196306  )
        10        O      tau(  10) = (   0.3475441   0.0586415   0.3840965  )
        11        O      tau(  11) = (   0.2245571  -0.2716613   0.4196306  )
        12        O      tau(  12) = (  -0.2245571   0.2716612   0.3840965  )
        13        H      tau(  13) = (  -0.5446961  -0.4126715   0.2597134  )
        14        H      tau(  14) = (   0.5446961   0.4126715   0.5440137  )
        15        H      tau(  15) = (   0.6297321  -0.2653849   0.2597134  )
        16        H      tau(  16) = (  -0.6297321   0.2653849   0.5440137  )
        17        H      tau(  17) = (  -0.0850360   0.6780564   0.2597134  )
        18        H      tau(  18) = (   0.0850360  -0.6780564   0.5440137  )
        19        H      tau(  19) = (  -0.4726389  -0.4926041   0.4288765  )
        20        H      tau(  20) = (   0.4726389   0.4926042   0.3748506  )
        21        H      tau(  21) = (   0.6629272  -0.1630152   0.4288765  )
        22        H      tau(  22) = (  -0.6629272   0.1630152   0.3748506  )
        23        H      tau(  23) = (  -0.1902883   0.6556194   0.4288765  )
        24        H      tau(  24) = (   0.1902883  -0.6556194   0.3748506  )
        25        H      tau(  25) = (   0.2676988  -0.1507235   0.4151121  )
        26        H      tau(  26) = (  -0.2676988   0.1507234   0.3886151  )
        27        H      tau(  27) = (  -0.0033191   0.3071957   0.4151121  )
        28        H      tau(  28) = (   0.0033191  -0.3071957   0.3886151  )
        29        H      tau(  29) = (  -0.2643797  -0.1564722   0.4151121  )
        30        H      tau(  30) = (   0.2643797   0.1564723   0.3886151  )
        31        H      tau(  31) = (   0.3102941  -0.3416444   0.3555952  )
        32        H      tau(  32) = (  -0.3102941   0.3416444   0.4481319  )
        33        H      tau(  33) = (   0.1407257   0.4395448   0.3555952  )
        34        H      tau(  34) = (  -0.1407257  -0.4395448   0.4481319  )
        35        H      tau(  35) = (  -0.4510198  -0.0979003   0.3555952  )
        36        H      tau(  36) = (   0.4510198   0.0979003   0.4481319  )

     number of k points=    14
                       cart. coord. in units 2pi/alat
        k(    1) = (   0.0000000   0.0000000   0.0000000), wk =   0.0312500
        k(    2) = (  -0.1498141  -0.0864952   0.3110508), wk =   0.1875000
        k(    3) = (   0.2996283   0.1729905  -0.6221017), wk =   0.0937500
        k(    4) = (  -0.1498141   0.0864952   0.6221017), wk =   0.1875000
        k(    5) = (   0.2996283   0.3459809  -0.3110508), wk =   0.1875000
        k(    6) = (   0.1498141   0.2594857   0.0000000), wk =   0.1875000
        k(    7) = (   0.2996283  -0.1729905  -1.2442034), wk =   0.0937500
        k(    8) = (   0.0000000   0.0000000   0.9331525), wk =   0.0625000
        k(    9) = (   0.4494424   0.2594857   0.0000000), wk =   0.1875000
        k(   10) = (   0.2996283   0.1729905   0.3110508), wk =   0.1875000
        k(   11) = (   0.4494424  -0.2594857  -0.9331525), wk =   0.1875000
        k(   12) = (   0.2996283  -0.3459809  -0.6221017), wk =   0.1875000
        k(   13) = (   0.0000000   0.0000000  -1.8663050), wk =   0.0312500
        k(   14) = (   0.2996283  -0.3459809   0.3110508), wk =   0.1875000

     Dense  grid:   225437 G-vectors     FFT dimensions: (  90,  90,  90)

     Estimated max dynamical RAM per process >      14.90 MB

     Estimated total dynamical RAM >       1.70 GB

     Initial potential from superposition of free atoms

     starting charge      95.9998, renormalised to      96.0000
     Starting wfcs are   72 randomized atomic wfcs

     total cpu time spent up to now is        1.2 secs

     per-process dynamical memory:    19.1 Mb

     Self-consistent Calculation

     iteration #  1     ecut=    90.00 Ry     beta= 0.70
     Davidson diagonalization with overlap
     ethr =  1.00E-02,  avg # of iterations =  2.0

     total cpu time spent up to now is        2.0 secs

     total energy              =    -412.32225281 Ry
     estimated scf accuracy    <       4.00199085 Ry

     iteration #  2     ecut=    90.00 Ry     beta= 0.70
     Davidson diagonalization with overlap
     ethr =  4.17E-03,  avg # of iterations =  3.0

     total cpu time spent up to now is        3.0 secs

     total energy              =    -413.59651666 Ry
     estimated scf accuracy    <       2.22906909 Ry

     iteration #  3     ecut=    90.00 Ry     beta= 0.70
     Davidson diagonalization with overlap
     ethr =  2.32E-03,  avg # of iterations =  2.0

     total cpu time spent up to now is        3.8 secs

     total energy              =    -413.88204123 Ry
     estimated scf accuracy    <       0.08879055 Ry

     iteration #  4     ecut=    90.00 Ry     beta= 0.70
     Davidson diagonalization with overlap
     ethr =  9.25E-05,  avg # of iterations =  4.0

     negative rho (up, down):  6.011E-08 0.000E+00

     total cpu time spent up to now is        4.9 secs

     total energy              =    -413.95005076 Ry
     estimated scf accuracy    <       0.10930594 Ry

     iteration #  5     ecut=    90.00 Ry     beta= 0.70
     Davidson diagonalization with overlap
     ethr =  9.25E-05,  avg # of iterations =  2.0

     negative rho (up, down):  8.738E-08 0.000E+00

     total cpu time spent up to now is        5.7 secs

     total energy              =    -413.95440464 Ry
     estimated scf accuracy    <       0.01560756 Ry

     iteration #  6     ecut=    90.00 Ry     beta= 0.70
     Davidson diagonalization with overlap
     ethr =  1.63E-05,  avg # of iterations =  2.0

     negative rho (up, down):  1.227E-07 0.000E+00

     total cpu time spent up to now is        6.4 secs

     total energy              =    -413.95392729 Ry
     estimated scf accuracy    <       0.00418916 Ry

     iteration #  7     ecut=    90.00 Ry     beta= 0.70
     Davidson diagonalization with overlap
     ethr =  4.36E-06,  avg # of iterations =  2.4

     negative rho (up, down):  1.190E-07 0.000E+00

     total cpu time spent up to now is        7.3 secs

     total energy              =    -413.95616417 Ry
     estimated scf accuracy    <       0.00057714 Ry

     iteration #  8     ecut=    90.00 Ry     beta= 0.70
     Davidson diagonalization with overlap
     ethr =  6.01E-07,  avg # of iterations =  2.1

     negative rho (up, down):  1.076E-07 0.000E+00

     total cpu time spent up to now is        8.1 secs

     total energy              =    -413.95577592 Ry
     estimated scf accuracy    <       0.00115734 Ry

     iteration #  9     ecut=    90.00 Ry     beta= 0.70
     Davidson diagonalization with overlap
     ethr =  6.01E-07,  avg # of iterations =  2.0

     negative rho (up, down):  1.021E-07 0.000E+00

     total cpu time spent up to now is        8.9 secs

     total energy              =    -413.95580236 Ry
     estimated scf accuracy    <       0.00018435 Ry

     iteration # 10     ecut=    90.00 Ry     beta= 0.70
     Davidson diagonalization with overlap
     ethr =  1.92E-07,  avg # of iterations =  2.0

     negative rho (up, down):  1.014E-07 0.000E+00

     total cpu time spent up to now is        9.7 secs

     total energy              =    -413.95583084 Ry
     estimated scf accuracy    <       0.00002179 Ry

     iteration # 11     ecut=    90.00 Ry     beta= 0.70
     Davidson diagonalization with overlap
     ethr =  2.27E-08,  avg # of iterations =  2.1

     negative rho (up, down):  1.000E-07 0.000E+00

     total cpu time spent up to now is       10.4 secs

     total energy              =    -413.95583167 Ry
     estimated scf accuracy    <       0.00000759 Ry

     iteration # 12     ecut=    90.00 Ry     beta= 0.70
     Davidson diagonalization with overlap
     ethr =  7.90E-09,  avg # of iterations =  2.1

     negative rho (up, down):  9.975E-08 0.000E+00

     total cpu time spent up to now is       11.3 secs

     total energy              =    -413.95583323 Ry
     estimated scf accuracy    <       0.00000043 Ry

     iteration # 13     ecut=    90.00 Ry     beta= 0.70
     Davidson diagonalization with overlap
     ethr =  4.43E-10,  avg # of iterations =  4.1

     negative rho (up, down):  1.001E-07 0.000E+00

     total cpu time spent up to now is       12.4 secs

     total energy              =    -413.95583365 Ry
     estimated scf accuracy    <       0.00000023 Ry

     iteration # 14     ecut=    90.00 Ry     beta= 0.70
     Davidson diagonalization with overlap
     ethr =  2.41E-10,  avg # of iterations =  1.7

     negative rho (up, down):  1.004E-07 0.000E+00

     total cpu time spent up to now is       13.1 secs

     End of self-consistent calculation

          k = 0.0000 0.0000 0.0000 ( 28157 PWs)   bands (ev):

   -20.8408 -20.3419 -20.3419 -20.1088 -20.1088 -20.0939 -20.0495 -20.0495
   -20.0199 -19.7121 -19.7121 -19.3653  -8.3484  -8.2211  -8.2061  -8.2061
    -8.1136  -8.1136  -7.7904  -7.7904  -7.7790  -7.7790  -7.7774  -7.7208
    -6.6388  -5.4687  -5.4687  -4.9014  -4.9014  -4.6335  -4.6335  -4.5695
    -4.3382  -3.6669  -3.6669  -2.9157  -2.6034  -2.6034  -2.5083  -2.3991
    -2.3991  -2.3375  -2.2591  -2.2549  -2.2549  -2.1513  -2.1171  -2.1171

          k =-0.1498-0.0865 0.3111 ( 28209 PWs)   bands (ev):

   -20.7624 -20.3788 -20.3304 -20.2617 -20.2228 -20.1482 -20.0037 -19.9423
   -19.8769 -19.7219 -19.6765 -19.4278  -8.3111  -8.2490  -8.2151  -8.1917
    -8.1108  -8.0678  -7.8677  -7.8261  -7.7927  -7.7327  -7.6909  -7.6652
    -6.4405  -5.6455  -5.4953  -5.1929  -5.0041  -4.7378  -4.4535  -4.3699
    -4.1671  -3.6710  -3.5974  -3.0631  -2.6908  -2.6296  -2.5315  -2.4748
    -2.4510  -2.3838  -2.3078  -2.2459  -2.2084  -2.1757  -2.1200  -2.1062

          k = 0.2996 0.1730-0.6221 ( 28156 PWs)   bands (ev):

   -20.5729 -20.5413 -20.3579 -20.3267 -20.2437 -20.2126 -19.9518 -19.9077
   -19.7745 -19.7048 -19.6126 -19.5563  -8.2674  -8.2573  -8.2127  -8.1963
    -8.1201  -8.0454  -7.8708  -7.8435  -7.8006  -7.7448  -7.6215  -7.6049
    -6.0549  -5.9323  -5.5245  -5.4856  -4.9795  -4.9337  -4.3074  -4.2555
    -3.7914  -3.7647  -3.5703  -3.3124  -2.7648  -2.6526  -2.5500  -2.5469
    -2.4787  -2.3809  -2.3627  -2.2803  -2.2504  -2.1638  -2.0884  -2.0858

          k =-0.1498 0.0865 0.6221 ( 28187 PWs)   bands (ev):

   -20.6075 -20.4437 -20.4321 -20.3042 -20.2780 -20.2037 -19.9486 -19.8580
   -19.8109 -19.6836 -19.6581 -19.5342  -8.2670  -8.2436  -8.2297  -8.2057
    -8.1066  -8.0368  -7.8679  -7.8489  -7.8416  -7.6806  -7.6448  -7.6128
    -6.0933  -5.7911  -5.7423  -5.2787  -5.1196  -4.9156  -4.3360  -4.0822
    -3.9951  -3.6594  -3.5683  -3.3390  -2.7539  -2.6760  -2.5531  -2.5096
    -2.4485  -2.4257  -2.3705  -2.2625  -2.2498  -2.1728  -2.1091  -2.0642

          k = 0.2996 0.3460-0.3111 ( 28223 PWs)   bands (ev):

   -20.6548 -20.4769 -20.4004 -20.3264 -20.2368 -20.1612 -19.9684 -19.8606
   -19.7658 -19.7463 -19.6342 -19.5208  -8.2787  -8.2697  -8.1929  -8.1796
    -8.1159  -8.0562  -7.9436  -7.9138  -7.8462  -7.6827  -7.6674  -7.6138
    -6.1415  -5.7798  -5.5711  -5.3153  -5.2854  -4.7114  -4.2838  -4.1375
    -4.0114  -3.7073  -3.5675  -3.2661  -2.6828  -2.6271  -2.5635  -2.4913
    -2.4454  -2.3673  -2.3351  -2.3098  -2.2264  -2.2151  -2.0870  -2.0323

          k = 0.1498 0.2595 0.0000 ( 28224 PWs)   bands (ev):

   -20.7819 -20.4227 -20.3621 -20.2352 -20.1766 -20.0994 -20.0216 -19.9493
   -19.8728 -19.7219 -19.6816 -19.4186  -8.3241  -8.2459  -8.2094  -8.1791
    -8.1050  -8.0936  -7.9367  -7.8801  -7.8072  -7.7336  -7.7087  -7.6729
    -6.4467  -5.5338  -5.4658  -5.2177  -5.1777  -4.5686  -4.4290  -4.2879
    -4.2076  -3.6979  -3.6587  -3.0074  -2.6035  -2.5812  -2.5503  -2.4552
    -2.4077  -2.3692  -2.3000  -2.2805  -2.2310  -2.1813  -2.0798  -2.0639

          k = 0.2996-0.1730-1.2442 ( 28194 PWs)   bands (ev):

   -20.6362 -20.6055 -20.3771 -20.2916 -20.1714 -20.1328 -19.9455 -19.9451
   -19.7705 -19.7563 -19.5755 -19.5352  -8.2902  -8.2602  -8.1965  -8.1747
    -8.0818  -8.0816  -8.0260  -7.9434  -7.8316  -7.7258  -7.6917  -7.6393
    -5.9880  -5.9659  -5.5084  -5.4337  -5.0825  -4.7018  -4.2452  -4.1768
    -3.9728  -3.8243  -3.4673  -3.2635  -2.6087  -2.5732  -2.5476  -2.4923
    -2.4197  -2.3648  -2.3506  -2.2778  -2.2646  -2.1921  -2.0423  -2.0309

          k = 0.0000 0.0000 0.9332 ( 28236 PWs)   bands (ev):

   -20.5292 -20.5292 -20.4806 -20.4023 -20.1920 -20.1920 -19.8807 -19.8807
   -19.7374 -19.6507 -19.6507 -19.6273  -8.2661  -8.2661  -8.2104  -8.1611
    -8.1048  -8.1048  -7.9782  -7.8959  -7.8959  -7.6321  -7.6321  -7.5967
    -5.8682  -5.8682  -5.7935  -5.4821  -5.0223  -5.0223  -4.0365  -4.0365
    -3.9051  -3.6406  -3.6406  -3.5132  -2.6335  -2.6335  -2.5286  -2.4956
    -2.4162  -2.4162  -2.3425  -2.2895  -2.2895  -2.1559  -2.1559  -2.0040

          k = 0.4494 0.2595 0.0000 ( 28210 PWs)   bands (ev):

   -20.6726 -20.4902 -20.4873 -20.2925 -20.1315 -20.1015 -19.9936 -19.9557
   -19.7772 -19.6887 -19.6408 -19.5111  -8.2875  -8.2511  -8.2237  -8.1429
    -8.1184  -8.0503  -8.0434  -7.9177  -7.8695  -7.7053  -7.6725  -7.6595
    -6.1229  -5.6776  -5.6335  -5.4941  -5.0412  -4.6976  -4.3162  -4.2039
    -3.8875  -3.7174  -3.6130  -3.2251  -2.5921  -2.5754  -2.5599  -2.4871
    -2.4410  -2.3789  -2.3342  -2.3050  -2.2220  -2.1664  -2.0958  -2.0080

          k = 0.2996 0.1730 0.3111 ( 28198 PWs)   bands (ev):

   -20.7073 -20.4289 -20.3459 -20.3246 -20.2268 -20.1610 -19.9691 -19.9254
   -19.8326 -19.7176 -19.6452 -19.4684  -8.2925  -8.2535  -8.2188  -8.1547
    -8.1229  -8.0342  -7.9447  -7.8261  -7.7968  -7.7756  -7.7133  -7.6438
    -6.2702  -5.6369  -5.5733  -5.2430  -5.1906  -4.7174  -4.3674  -4.2078
    -4.1617  -3.6531  -3.5839  -3.1242  -2.7116  -2.6159  -2.5695  -2.5317
    -2.4636  -2.3787  -2.3115  -2.2864  -2.2100  -2.1771  -2.0973  -2.0475

          k = 0.4494-0.2595-0.9332 ( 28217 PWs)   bands (ev):

   -20.5641 -20.5608 -20.4104 -20.3572 -20.2182 -20.1291 -20.0063 -19.8985
   -19.7505 -19.6959 -19.6383 -19.5224  -8.2708  -8.2468  -8.2203  -8.1409
    -8.1081  -8.0164  -7.9865  -7.8919  -7.8180  -7.7757  -7.6986  -7.6547
    -5.9657  -5.7998  -5.6209  -5.4321  -5.1429  -4.7064  -4.4560  -4.1538
    -3.8798  -3.6414  -3.6079  -3.2339  -2.7114  -2.6338  -2.5959  -2.5381
    -2.5051  -2.4081  -2.3046  -2.2677  -2.2141  -2.1836  -2.0951  -2.0015

          k = 0.2996-0.3460-0.6221 ( 28200 PWs)   bands (ev):

   -20.5345 -20.5000 -20.3941 -20.3861 -20.2466 -20.2352 -19.9281 -19.9070
   -19.7417 -19.7195 -19.6315 -19.5374  -8.2754  -8.2211  -8.1960  -8.1790
    -8.1473  -7.9952  -7.9019  -7.8743  -7.7943  -7.7548  -7.6611  -7.6498
    -5.9123  -5.8779  -5.5695  -5.5095  -5.0386  -4.9949  -4.2592  -4.1824
    -3.8391  -3.8095  -3.5023  -3.2984  -2.7834  -2.6523  -2.6036  -2.5866
    -2.4989  -2.4218  -2.2965  -2.2716  -2.2560  -2.1570  -2.1351  -2.0022

          k = 0.0000 0.0000-1.8663 ( 28230 PWs)   bands (ev):

   -20.4874 -20.4484 -20.3920 -20.3920 -20.3249 -20.3249 -19.8431 -19.8431
   -19.7789 -19.7789 -19.6307 -19.5166  -8.2767  -8.1746  -8.1746  -8.1678
    -8.1678  -7.9689  -7.9323  -7.8936  -7.7668  -7.7668  -7.7105  -7.7105
    -5.9120  -5.7481  -5.3836  -5.3836  -5.2697  -5.2697  -4.0215  -4.0215
    -3.9710  -3.9710  -3.4475  -3.2778  -2.7621  -2.6446  -2.6446  -2.6309
    -2.6309  -2.3801  -2.2686  -2.2083  -2.2083  -2.1964  -2.1964  -1.9551

          k = 0.2996-0.3460 0.3111 ( 28223 PWs)   bands (ev):

   -20.6543 -20.4843 -20.3774 -20.3452 -20.2343 -20.1621 -19.9635 -19.8522
   -19.8119 -19.6941 -19.6537 -19.5197  -8.2881  -8.2514  -8.2070  -8.1587
    -8.1312  -8.0593  -7.9591  -7.8982  -7.8428  -7.6837  -7.6598  -7.6213
    -6.1458  -5.7576  -5.6218  -5.2851  -5.2396  -4.7755  -4.3652  -4.0275
    -3.9208  -3.7652  -3.6381  -3.2355  -2.6938  -2.5965  -2.5696  -2.4929
    -2.4497  -2.3746  -2.3340  -2.3158  -2.2572  -2.1727  -2.0923  -2.0343

     highest occupied level (ev):    -1.9551

!    total energy              =    -413.95583363 Ry
     estimated scf accuracy    <       0.00000005 Ry

     The total energy is the sum of the following terms:
     one-electron contribution =    -284.62246936 Ry
     hartree contribution      =     177.58371064 Ry
     xc contribution           =    -101.95639937 Ry
     ewald contribution        =    -204.96067554 Ry

     convergence has been achieved in  14 iterations

     Forces acting on atoms (cartesian axes, Ry/au):

     atom    1 type  2   force =     0.00695035   -0.02569701   -0.01509720
     atom    2 type  2   force =    -0.00695035    0.02569701    0.01509720
     atom    3 type  2   force =     0.01877908    0.01886769   -0.01509720
     atom    4 type  2   force =    -0.01877908   -0.01886769    0.01509720
     atom    5 type  2   force =    -0.02572944    0.00682932   -0.01509720
     atom    6 type  2   force =     0.02572944   -0.00682932    0.01509720
     atom    7 type  2   force =     0.02069132   -0.01585704    0.01310117
     atom    8 type  2   force =    -0.02069132    0.01585704   -0.01310117
     atom    9 type  2   force =     0.00338694    0.02584773    0.01310117
     atom   10 type  2   force =    -0.00338694   -0.02584773   -0.01310117
     atom   11 type  2   force =    -0.02407826   -0.00999069    0.01310117
     atom   12 type  2   force =     0.02407826    0.00999069   -0.01310117
     atom   13 type  1   force =    -0.01045925    0.02066851   -0.00989798
     atom   14 type  1   force =     0.01045925   -0.02066851    0.00989798
     atom   15 type  1   force =    -0.01266982   -0.01939223   -0.00989798
     atom   16 type  1   force =     0.01266982    0.01939223    0.00989798
     atom   17 type  1   force =     0.02312908   -0.00127627   -0.00989798
     atom   18 type  1   force =    -0.02312908    0.00127627    0.00989798
     atom   19 type  1   force =     0.00536667    0.00418304    0.02603775
     atom   20 type  1   force =    -0.00536667   -0.00418304   -0.02603775
     atom   21 type  1   force =    -0.00630595    0.00255615    0.02603775
     atom   22 type  1   force =     0.00630595   -0.00255615   -0.02603775
     atom   23 type  1   force =     0.00093928   -0.00673919    0.02603775
     atom   24 type  1   force =    -0.00093928    0.00673919   -0.02603775
     atom   25 type  1   force =     0.00783800    0.02543380   -0.00015080
     atom   26 type  1   force =    -0.00783800   -0.02543380    0.00015080
     atom   27 type  1   force =    -0.02594532   -0.00592899   -0.00015080
     atom   28 type  1   force =     0.02594532    0.00592899    0.00015080
     atom   29 type  1   force =     0.01810731   -0.01950481   -0.00015080
     atom   30 type  1   force =    -0.01810731    0.01950481    0.00015080
     atom   31 type  1   force =     0.01686696   -0.01585799   -0.01325119
     atom   32 type  1   force =    -0.01686696    0.01585799    0.01325119
     atom   33 type  1   force =     0.00529994    0.02253621   -0.01325119
     atom   34 type  1   force =    -0.00529994   -0.02253621    0.01325119
     atom   35 type  1   force =    -0.02216690   -0.00667822   -0.01325119
     atom   36 type  1   force =     0.02216690    0.00667822    0.01325119

     Total force =     0.165526     Total SCF correction =     0.000144


     Computing stress (Cartesian axis) and pressure

          total   stress  (Ry/bohr**3)                   (kbar)     P=       33.52
   0.00022197  -0.00000000   0.00000000           32.65       -0.00        0.00
   0.00000000   0.00022197   0.00000000            0.00       32.65        0.00
   0.00000000   0.00000000   0.00023976            0.00        0.00       35.27


     Writing all to output data dir ./iceII/iceII.save/ :
     XML data file, charge density, pseudopotentials, collected wavefunctions

     init_run     :      0.91s CPU      0.98s WALL (       1 calls)
     electrons    :     11.71s CPU     11.92s WALL (       1 calls)
     forces       :      0.13s CPU      0.14s WALL (       1 calls)
     stress       :      0.81s CPU      0.83s WALL (       1 calls)

     Called by init_run:
     wfcinit      :      0.33s CPU      0.34s WALL (       1 calls)
     potinit      :      0.04s CPU      0.06s WALL (       1 calls)
     hinit0       :      0.39s CPU      0.40s WALL (       1 calls)

     Called by electrons:
     c_bands      :      9.74s CPU      9.84s WALL (      14 calls)
     sum_band     :      1.45s CPU      1.48s WALL (      14 calls)
     v_of_rho     :      0.32s CPU      0.35s WALL (      15 calls)
     newd         :      0.10s CPU      0.11s WALL (      15 calls)
     mix_rho      :      0.05s CPU      0.05s WALL (      14 calls)

     Called by c_bands:
     init_us_2    :      0.17s CPU      0.17s WALL (     124 calls)
     cegterg      :      9.40s CPU      9.48s WALL (      56 calls)

     Called by *egterg:
     cdiaghg      :      0.73s CPU      0.74s WALL (     196 calls)
     h_psi        :      7.43s CPU      7.50s WALL (     200 calls)
     s_psi        :      0.31s CPU      0.31s WALL (     200 calls)
     g_psi        :      0.02s CPU      0.02s WALL (     140 calls)

     Called by h_psi:
     h_psi:calbec :      0.51s CPU      0.52s WALL (     200 calls)
     vloc_psi     :      6.56s CPU      6.62s WALL (     200 calls)
     add_vuspsi   :      0.31s CPU      0.31s WALL (     200 calls)

     General routines
     calbec       :      0.70s CPU      0.71s WALL (     276 calls)
     fft          :      0.57s CPU      0.60s WALL (     173 calls)
     ffts         :      0.03s CPU      0.03s WALL (      14 calls)
     fftw         :      6.89s CPU      6.95s WALL (   18892 calls)

     Parallel routines

     PWSCF        :     13.89s CPU     14.49s WALL


   This run was terminated on:  17:55:54  23Mar2026            

=------------------------------------------------------------------------------=
   JOB DONE.
=------------------------------------------------------------------------------=
