
     Program PWSCF v.7.3.1 starts on 23Mar2026 at 17:55:57 

     This program is part of the open-source Quantum ESPRESSO suite
     for quantum simulation of materials; please cite
         "P. Giannozzi et al., J. Phys.:Condens. Matter 21 395502 (2009);
         "P. Giannozzi et al., J. Phys.:Condens. Matter 29 465901 (2017);
         "P. Giannozzi et al., J. Chem. Phys. 152 154105 (2020);
          URL http://www.quantum-espresso.org", 
     in publications or presentations arising from this work. More details at
     http://www.quantum-espresso.org/quote

     Parallel version (MPI), running on   128 processors

     MPI processes distributed on     1 nodes
     242893 MiB available memory on the printing compute node when the environment starts

     Waiting for input...
     Reading input from standard input

     Current dimensions of program PWSCF are:
     Max number of different atomic species (ntypx) = 10
     Max number of k-points (npk) =  40000
     Max angular momentum in pseudopotentials (lmaxx) =  4

     K-points division:     npool     =       4
     R & G space division:  proc/nbgrp/npool/nimage =      32
     Subspace diagonalization in iterative solution of the eigenvalue problem:
     a serial algorithm will be used


     Parallelization info
     --------------------
     sticks:   dense  smooth     PW     G-vecs:    dense   smooth      PW
     Min         172     172     50                 7092     7092    1131
     Max         173     173     51                 7094     7094    1134
     Sum        5533    5533   1625               226985   226985   36241

     Using Slab Decomposition



     bravais-lattice index     =            5
     lattice parameter (alat)  =      14.4962  a.u.
     unit-cell volume          =    1968.1511 (a.u.)^3
     number of atoms/cell      =           36
     number of atomic types    =            2
     number of electrons       =        96.00
     number of Kohn-Sham states=           48
     kinetic-energy cutoff     =      90.0000  Ry
     charge density cutoff     =     360.0000  Ry
     scf convergence threshold =      1.0E-07
     mixing beta               =       0.7000
     number of iterations used =            8  plain     mixing
     Exchange-correlation=  SLA  PW   PBE  PBE
                           (   1   4   3   4   0   0   0)

     celldm(1)=  14.496239  celldm(2)=   0.000000  celldm(3)=   0.000000
     celldm(4)=  -0.392337  celldm(5)=   0.000000  celldm(6)=   0.000000

     crystal axes: (cart. coord. in units of alat)
               a(1) = (   0.834367  -0.481722   0.267909 )  
               a(2) = (   0.000000   0.963444   0.267909 )  
               a(3) = (  -0.834367  -0.481722   0.267909 )  

     reciprocal axes: (cart. coord. in units 2 pi/alat)
               b(1) = (  0.599257 -0.345981  1.244203 )  
               b(2) = ( -0.000000  0.691962  1.244203 )  
               b(3) = ( -0.599257 -0.345981  1.244203 )  


     PseudoPot. # 1 for H  read from file:
     ./H.pbe-van_ak.UPF
     MD5 check sum: 077eb6d537518a38cb46c6de387227b7
     Pseudo is Ultrasoft, Zval =  1.0
     Generated by new atomic code, or converted to UPF format
     Using radial grid of  615 points,  1 beta functions with: 
                l(1) =   0
     Q(r) pseudized with  8 coefficients,  rinner =    0.800

     PseudoPot. # 2 for O  read from file:
     ./O.pbe-van_ak.UPF
     MD5 check sum: 78c19812648e8988a0fe644b0f25305e
     Pseudo is Ultrasoft, Zval =  6.0
     Generated by new atomic code, or converted to UPF format
     Using radial grid of  737 points,  4 beta functions with: 
                l(1) =   0
                l(2) =   0
                l(3) =   1
                l(4) =   1
     Q(r) pseudized with  8 coefficients,  rinner =    0.800   0.800   0.800


     atomic species   valence    mass     pseudopotential
     H                 1.00     1.00800     H ( 1.00)
     O                 6.00    16.00000     O ( 1.00)

      6 Sym. Ops., with inversion, found



   Cartesian axes

     site n.     atom                  positions (alat units)
         1        O      tau(   1) = (  -0.4910119  -0.5205722   0.3052394  )
         2        O      tau(   2) = (   0.4910119   0.5205722   0.4984877  )
         3        O      tau(   3) = (   0.6963347  -0.1649427   0.3052394  )
         4        O      tau(   4) = (  -0.6963347   0.1649427   0.4984877  )
         5        O      tau(   5) = (  -0.2053228   0.6855149   0.3052394  )
         6        O      tau(   6) = (   0.2053228  -0.6855149   0.4984877  )
         7        O      tau(   7) = (   0.1229870   0.3303028   0.4196306  )
         8        O      tau(   8) = (  -0.1229870  -0.3303028   0.3840965  )
         9        O      tau(   9) = (  -0.3475441  -0.0586415   0.4196306  )
        10        O      tau(  10) = (   0.3475441   0.0586415   0.3840965  )
        11        O      tau(  11) = (   0.2245571  -0.2716613   0.4196306  )
        12        O      tau(  12) = (  -0.2245571   0.2716612   0.3840965  )
        13        H      tau(  13) = (  -0.5446961  -0.4126715   0.2597134  )
        14        H      tau(  14) = (   0.5446961   0.4126715   0.5440137  )
        15        H      tau(  15) = (   0.6297321  -0.2653849   0.2597134  )
        16        H      tau(  16) = (  -0.6297321   0.2653849   0.5440137  )
        17        H      tau(  17) = (  -0.0850360   0.6780564   0.2597134  )
        18        H      tau(  18) = (   0.0850360  -0.6780564   0.5440137  )
        19        H      tau(  19) = (  -0.4726389  -0.4926041   0.4288765  )
        20        H      tau(  20) = (   0.4726389   0.4926042   0.3748506  )
        21        H      tau(  21) = (   0.6629272  -0.1630152   0.4288765  )
        22        H      tau(  22) = (  -0.6629272   0.1630152   0.3748506  )
        23        H      tau(  23) = (  -0.1902883   0.6556194   0.4288765  )
        24        H      tau(  24) = (   0.1902883  -0.6556194   0.3748506  )
        25        H      tau(  25) = (   0.2676988  -0.1507235   0.4151121  )
        26        H      tau(  26) = (  -0.2676988   0.1507234   0.3886151  )
        27        H      tau(  27) = (  -0.0033191   0.3071957   0.4151121  )
        28        H      tau(  28) = (   0.0033191  -0.3071957   0.3886151  )
        29        H      tau(  29) = (  -0.2643797  -0.1564722   0.4151121  )
        30        H      tau(  30) = (   0.2643797   0.1564723   0.3886151  )
        31        H      tau(  31) = (   0.3102941  -0.3416444   0.3555952  )
        32        H      tau(  32) = (  -0.3102941   0.3416444   0.4481319  )
        33        H      tau(  33) = (   0.1407257   0.4395448   0.3555952  )
        34        H      tau(  34) = (  -0.1407257  -0.4395448   0.4481319  )
        35        H      tau(  35) = (  -0.4510198  -0.0979003   0.3555952  )
        36        H      tau(  36) = (   0.4510198   0.0979003   0.4481319  )

     number of k points=    14
                       cart. coord. in units 2pi/alat
        k(    1) = (   0.0000000   0.0000000   0.0000000), wk =   0.0312500
        k(    2) = (  -0.1498141  -0.0864952   0.3110508), wk =   0.1875000
        k(    3) = (   0.2996283   0.1729905  -0.6221017), wk =   0.0937500
        k(    4) = (  -0.1498141   0.0864952   0.6221017), wk =   0.1875000
        k(    5) = (   0.2996283   0.3459809  -0.3110508), wk =   0.1875000
        k(    6) = (   0.1498141   0.2594857   0.0000000), wk =   0.1875000
        k(    7) = (   0.2996283  -0.1729905  -1.2442034), wk =   0.0937500
        k(    8) = (   0.0000000   0.0000000   0.9331525), wk =   0.0625000
        k(    9) = (   0.4494424   0.2594857   0.0000000), wk =   0.1875000
        k(   10) = (   0.2996283   0.1729905   0.3110508), wk =   0.1875000
        k(   11) = (   0.4494424  -0.2594857  -0.9331525), wk =   0.1875000
        k(   12) = (   0.2996283  -0.3459809  -0.6221017), wk =   0.1875000
        k(   13) = (   0.0000000   0.0000000  -1.8663050), wk =   0.0312500
        k(   14) = (   0.2996283  -0.3459809   0.3110508), wk =   0.1875000

     Dense  grid:   226985 G-vectors     FFT dimensions: (  90,  90,  90)

     Estimated max dynamical RAM per process >      14.98 MB

     Estimated total dynamical RAM >       1.71 GB

     Initial potential from superposition of free atoms

     starting charge      95.9998, renormalised to      96.0000
     Starting wfcs are   72 randomized atomic wfcs

     total cpu time spent up to now is        1.2 secs

     per-process dynamical memory:    19.1 Mb

     Self-consistent Calculation

     iteration #  1     ecut=    90.00 Ry     beta= 0.70
     Davidson diagonalization with overlap
     ethr =  1.00E-02,  avg # of iterations =  2.0

     negative rho (up, down):  6.378E-08 0.000E+00

     total cpu time spent up to now is        2.1 secs

     total energy              =    -412.32639685 Ry
     estimated scf accuracy    <       3.99115712 Ry

     iteration #  2     ecut=    90.00 Ry     beta= 0.70
     Davidson diagonalization with overlap
     ethr =  4.16E-03,  avg # of iterations =  3.0

     negative rho (up, down):  8.452E-08 0.000E+00

     total cpu time spent up to now is        3.1 secs

     total energy              =    -413.59745243 Ry
     estimated scf accuracy    <       2.24188030 Ry

     iteration #  3     ecut=    90.00 Ry     beta= 0.70
     Davidson diagonalization with overlap
     ethr =  2.34E-03,  avg # of iterations =  2.0

     negative rho (up, down):  2.967E-07 0.000E+00

     total cpu time spent up to now is        3.9 secs

     total energy              =    -413.88398103 Ry
     estimated scf accuracy    <       0.08979512 Ry

     iteration #  4     ecut=    90.00 Ry     beta= 0.70
     Davidson diagonalization with overlap
     ethr =  9.35E-05,  avg # of iterations =  4.0

     negative rho (up, down):  4.586E-07 0.000E+00

     total cpu time spent up to now is        5.0 secs

     total energy              =    -413.95280952 Ry
     estimated scf accuracy    <       0.11047364 Ry

     iteration #  5     ecut=    90.00 Ry     beta= 0.70
     Davidson diagonalization with overlap
     ethr =  9.35E-05,  avg # of iterations =  2.0

     negative rho (up, down):  5.380E-07 0.000E+00

     total cpu time spent up to now is        5.7 secs

     total energy              =    -413.95721501 Ry
     estimated scf accuracy    <       0.01581177 Ry

     iteration #  6     ecut=    90.00 Ry     beta= 0.70
     Davidson diagonalization with overlap
     ethr =  1.65E-05,  avg # of iterations =  2.0

     negative rho (up, down):  6.400E-07 0.000E+00

     total cpu time spent up to now is        6.5 secs

     total energy              =    -413.95669949 Ry
     estimated scf accuracy    <       0.00428644 Ry

     iteration #  7     ecut=    90.00 Ry     beta= 0.70
     Davidson diagonalization with overlap
     ethr =  4.47E-06,  avg # of iterations =  2.4

     negative rho (up, down):  6.275E-07 0.000E+00

     total cpu time spent up to now is        7.4 secs

     total energy              =    -413.95897752 Ry
     estimated scf accuracy    <       0.00057677 Ry

     iteration #  8     ecut=    90.00 Ry     beta= 0.70
     Davidson diagonalization with overlap
     ethr =  6.01E-07,  avg # of iterations =  2.1

     negative rho (up, down):  5.967E-07 0.000E+00

     total cpu time spent up to now is        8.1 secs

     total energy              =    -413.95858482 Ry
     estimated scf accuracy    <       0.00118870 Ry

     iteration #  9     ecut=    90.00 Ry     beta= 0.70
     Davidson diagonalization with overlap
     ethr =  6.01E-07,  avg # of iterations =  2.0

     negative rho (up, down):  5.806E-07 0.000E+00

     total cpu time spent up to now is        8.9 secs

     total energy              =    -413.95860904 Ry
     estimated scf accuracy    <       0.00019674 Ry

     iteration # 10     ecut=    90.00 Ry     beta= 0.70
     Davidson diagonalization with overlap
     ethr =  2.05E-07,  avg # of iterations =  2.0

     negative rho (up, down):  5.776E-07 0.000E+00

     total cpu time spent up to now is        9.7 secs

     total energy              =    -413.95863628 Ry
     estimated scf accuracy    <       0.00002624 Ry

     iteration # 11     ecut=    90.00 Ry     beta= 0.70
     Davidson diagonalization with overlap
     ethr =  2.73E-08,  avg # of iterations =  2.1

     negative rho (up, down):  5.732E-07 0.000E+00

     total cpu time spent up to now is       10.5 secs

     total energy              =    -413.95863748 Ry
     estimated scf accuracy    <       0.00000830 Ry

     iteration # 12     ecut=    90.00 Ry     beta= 0.70
     Davidson diagonalization with overlap
     ethr =  8.65E-09,  avg # of iterations =  2.1

     negative rho (up, down):  5.724E-07 0.000E+00

     total cpu time spent up to now is       11.3 secs

     total energy              =    -413.95863913 Ry
     estimated scf accuracy    <       0.00000053 Ry

     iteration # 13     ecut=    90.00 Ry     beta= 0.70
     Davidson diagonalization with overlap
     ethr =  5.55E-10,  avg # of iterations =  4.0

     negative rho (up, down):  5.732E-07 0.000E+00

     total cpu time spent up to now is       12.4 secs

     total energy              =    -413.95863958 Ry
     estimated scf accuracy    <       0.00000014 Ry

     iteration # 14     ecut=    90.00 Ry     beta= 0.70
     Davidson diagonalization with overlap
     ethr =  1.51E-10,  avg # of iterations =  1.9

     negative rho (up, down):  5.742E-07 0.000E+00

     total cpu time spent up to now is       13.1 secs

     End of self-consistent calculation

          k = 0.0000 0.0000 0.0000 ( 28373 PWs)   bands (ev):

   -20.8417 -20.3490 -20.3490 -20.1178 -20.1178 -20.1035 -20.0594 -20.0594
   -20.0300 -19.7256 -19.7256 -19.3829  -8.3564  -8.2300  -8.2143  -8.2143
    -8.1239  -8.1239  -7.8023  -7.8023  -7.7905  -7.7905  -7.7884  -7.7325
    -6.6517  -5.4892  -5.4892  -4.9263  -4.9263  -4.6594  -4.6594  -4.5968
    -4.3650  -3.6981  -3.6981  -2.9488  -2.6298  -2.6298  -2.5357  -2.4273
    -2.4273  -2.3659  -2.2886  -2.2836  -2.2836  -2.1829  -2.1481  -2.1481

          k =-0.1498-0.0865 0.3111 ( 28363 PWs)   bands (ev):

   -20.7642 -20.3855 -20.3378 -20.2690 -20.2306 -20.1570 -20.0141 -19.9533
   -19.8888 -19.7352 -19.6904 -19.4447  -8.3195  -8.2573  -8.2236  -8.2006
    -8.1211  -8.0782  -7.8782  -7.8371  -7.8041  -7.7445  -7.7032  -7.6781
    -6.4550  -5.6651  -5.5158  -5.2157  -5.0284  -4.7636  -4.4799  -4.3976
    -4.1948  -3.7021  -3.6288  -3.0962  -2.7163  -2.6556  -2.5586  -2.5019
    -2.4786  -2.4121  -2.3375  -2.2750  -2.2383  -2.2057  -2.1506  -2.1369

          k = 0.2996 0.1730-0.6221 ( 28360 PWs)   bands (ev):

   -20.5773 -20.5454 -20.3650 -20.3334 -20.2516 -20.2204 -19.9629 -19.9188
   -19.7877 -19.7182 -19.6275 -19.5713  -8.2756  -8.2660  -8.2215  -8.2055
    -8.1302  -8.0558  -7.8811  -7.8544  -7.8120  -7.7566  -7.6348  -7.6184
    -6.0716  -5.9509  -5.5454  -5.5063  -5.0035  -4.9584  -4.3347  -4.2835
    -3.8220  -3.7943  -3.6013  -3.3451  -2.7898  -2.6781  -2.5766  -2.5735
    -2.5060  -2.4102  -2.3911  -2.3094  -2.2796  -2.1936  -2.1192  -2.1164

          k =-0.1498 0.0865 0.6221 ( 28352 PWs)   bands (ev):

   -20.6112 -20.4492 -20.4379 -20.3116 -20.2852 -20.2118 -19.9595 -19.8702
   -19.8233 -19.6975 -19.6723 -19.5496  -8.2755  -8.2520  -8.2386  -8.2146
    -8.1169  -8.0476  -7.8782  -7.8596  -7.8522  -7.6933  -7.6578  -7.6261
    -6.1103  -5.8098  -5.7615  -5.3009  -5.1434  -4.9401  -4.3634  -4.1105
    -4.0241  -3.6902  -3.5999  -3.3710  -2.7788  -2.7013  -2.5797  -2.5368
    -2.4761  -2.4541  -2.3994  -2.2915  -2.2792  -2.2025  -2.1396  -2.0951

          k = 0.2996 0.3460-0.3111 ( 28401 PWs)   bands (ev):

   -20.6579 -20.4821 -20.4068 -20.3330 -20.2448 -20.1699 -19.9793 -19.8729
   -19.7785 -19.7598 -19.6486 -19.5364  -8.2872  -8.2782  -8.2016  -8.1889
    -8.1259  -8.0664  -7.9533  -7.9238  -7.8568  -7.6951  -7.6802  -7.6271
    -6.1581  -5.7986  -5.5919  -5.3377  -5.3073  -4.7373  -4.3118  -4.1654
    -4.0406  -3.7373  -3.5994  -3.2990  -2.7087  -2.6531  -2.5900  -2.5186
    -2.4730  -2.3959  -2.3637  -2.3388  -2.2560  -2.2447  -2.1178  -2.0636

          k = 0.1498 0.2595 0.0000 ( 28385 PWs)   bands (ev):

   -20.7834 -20.4286 -20.3688 -20.2432 -20.1850 -20.1086 -20.0320 -19.9603
   -19.8847 -19.7353 -19.6954 -19.4355  -8.3323  -8.2544  -8.2178  -8.1881
    -8.1148  -8.1037  -7.9466  -7.8908  -7.8180  -7.7456  -7.7206  -7.6854
    -6.4612  -5.5539  -5.4872  -5.2405  -5.2003  -4.5950  -4.4567  -4.3159
    -4.2354  -3.7288  -3.6897  -3.0412  -2.6300  -2.6080  -2.5770  -2.4826
    -2.4356  -2.3974  -2.3288  -2.3094  -2.2608  -2.2120  -2.1108  -2.0951

          k = 0.2996-0.1730-1.2442 ( 28394 PWs)   bands (ev):

   -20.6392 -20.6092 -20.3835 -20.2991 -20.1799 -20.1419 -19.9568 -19.9563
   -19.7837 -19.7691 -19.5907 -19.5506  -8.2986  -8.2691  -8.2054  -8.1841
    -8.0914  -8.0913  -8.0348  -7.9535  -7.8421  -7.7379  -7.7039  -7.6522
    -6.0057  -5.9841  -5.5295  -5.4551  -5.1056  -4.7275  -4.2737  -4.2055
    -4.0025  -3.8538  -3.4989  -3.2971  -2.6350  -2.5998  -2.5749  -2.5193
    -2.4471  -2.3931  -2.3792  -2.3069  -2.2945  -2.2221  -2.0738  -2.0622

          k = 0.0000 0.0000 0.9332 ( 28443 PWs)   bands (ev):

   -20.5336 -20.5336 -20.4862 -20.4078 -20.2006 -20.2006 -19.8926 -19.8926
   -19.7514 -19.6648 -19.6648 -19.6413  -8.2748  -8.2748  -8.2193  -8.1700
    -8.1147  -8.1147  -7.9877  -7.9059  -7.9059  -7.6453  -7.6453  -7.6102
    -5.8865  -5.8865  -5.8117  -5.5046  -5.0461  -5.0461  -4.0655  -4.0655
    -3.9330  -3.6720  -3.6720  -3.5451  -2.6597  -2.6597  -2.5558  -2.5230
    -2.4441  -2.4441  -2.3717  -2.3184  -2.3184  -2.1860  -2.1860  -2.0356

          k = 0.4494 0.2595 0.0000 ( 28407 PWs)   bands (ev):

   -20.6753 -20.4953 -20.4922 -20.2999 -20.1409 -20.1108 -20.0042 -19.9666
   -19.7904 -19.7024 -19.6550 -19.5269  -8.2961  -8.2599  -8.2325  -8.1524
    -8.1278  -8.0601  -8.0525  -7.9276  -7.8796  -7.7175  -7.6849  -7.6722
    -6.1398  -5.6971  -5.6538  -5.5155  -5.0645  -4.7230  -4.3446  -4.2326
    -3.9168  -3.7482  -3.6441  -3.2586  -2.6187  -2.6021  -2.5868  -2.5141
    -2.4687  -2.4071  -2.3626  -2.3338  -2.2522  -2.1966  -2.1266  -2.0396

          k = 0.2996 0.1730 0.3111 ( 28353 PWs)   bands (ev):

   -20.7097 -20.4349 -20.3529 -20.3314 -20.2343 -20.1696 -19.9799 -19.9370
   -19.8445 -19.7313 -19.6594 -19.4847  -8.3010  -8.2619  -8.2274  -8.1639
    -8.1331  -8.0445  -7.9545  -7.8371  -7.8080  -7.7871  -7.7251  -7.6568
    -6.2861  -5.6570  -5.5936  -5.2652  -5.2135  -4.7435  -4.3945  -4.2362
    -4.1901  -3.6836  -3.6155  -3.1578  -2.7371  -2.6419  -2.5959  -2.5584
    -2.4910  -2.4069  -2.3404  -2.3157  -2.2398  -2.2072  -2.1279  -2.0786

          k = 0.4494-0.2595-0.9332 ( 28375 PWs)   bands (ev):

   -20.5685 -20.5647 -20.4163 -20.3639 -20.2261 -20.1381 -20.0168 -19.9103
   -19.7635 -19.7101 -19.6528 -19.5379  -8.2795  -8.2556  -8.2293  -8.1506
    -8.1181  -8.0253  -7.9971  -7.9019  -7.8288  -7.7870  -7.7107  -7.6675
    -5.9837  -5.8189  -5.6413  -5.4535  -5.1658  -4.7320  -4.4833  -4.1825
    -3.9101  -3.6717  -3.6391  -3.2674  -2.7372  -2.6596  -2.6221  -2.5648
    -2.5319  -2.4359  -2.3336  -2.2970  -2.2439  -2.2138  -2.1259  -2.0330

          k = 0.2996-0.3460-0.6221 ( 28376 PWs)   bands (ev):

   -20.5395 -20.5046 -20.4006 -20.3923 -20.2542 -20.2427 -19.9395 -19.9184
   -19.7550 -19.7329 -19.6464 -19.5526  -8.2840  -8.2297  -8.2050  -8.1886
    -8.1572  -8.0060  -7.9116  -7.8849  -7.8056  -7.7664  -7.6739  -7.6626
    -5.9306  -5.8966  -5.5899  -5.5303  -5.0623  -5.0190  -4.2871  -4.2113
    -3.8690  -3.8394  -3.5333  -3.3311  -2.8086  -2.6779  -2.6296  -2.6127
    -2.5266  -2.4495  -2.3253  -2.3008  -2.2853  -2.1871  -2.1653  -2.0338

          k = 0.0000 0.0000-1.8663 ( 28350 PWs)   bands (ev):

   -20.4934 -20.4536 -20.3983 -20.3983 -20.3311 -20.3311 -19.8558 -19.8558
   -19.7912 -19.7912 -19.6458 -19.5321  -8.2855  -8.1839  -8.1839  -8.1776
    -8.1776  -7.9792  -7.9415  -7.9045  -7.7784  -7.7784  -7.7224  -7.7224
    -5.9306  -5.7676  -5.4052  -5.4052  -5.2922  -5.2922  -4.0506  -4.0506
    -4.0010  -4.0010  -3.4780  -3.3104  -2.7888  -2.6701  -2.6701  -2.6564
    -2.6564  -2.4082  -2.2978  -2.2378  -2.2378  -2.2263  -2.2263  -1.9871

          k = 0.2996-0.3460 0.3111 ( 28401 PWs)   bands (ev):

   -20.6573 -20.4896 -20.3837 -20.3518 -20.2423 -20.1707 -19.9744 -19.8648
   -19.8242 -19.7078 -19.6679 -19.5353  -8.2966  -8.2599  -8.2158  -8.1685
    -8.1406  -8.0693  -7.9686  -7.9086  -7.8534  -7.6963  -7.6724  -7.6345
    -6.1623  -5.7770  -5.6416  -5.3075  -5.2625  -4.8007  -4.3923  -4.0569
    -3.9505  -3.7955  -3.6684  -3.2689  -2.7195  -2.6228  -2.5965  -2.5201
    -2.4770  -2.4030  -2.3628  -2.3447  -2.2865  -2.2027  -2.1230  -2.0656

     highest occupied level (ev):    -1.9871

!    total energy              =    -413.95863955 Ry
     estimated scf accuracy    <       0.00000005 Ry

     The total energy is the sum of the following terms:
     one-electron contribution =    -285.36691741 Ry
     hartree contribution      =     177.85396962 Ry
     xc contribution           =    -101.90075795 Ry
     ewald contribution        =    -204.54493381 Ry

     convergence has been achieved in  14 iterations

     Forces acting on atoms (cartesian axes, Ry/au):

     atom    1 type  2   force =     0.00595969   -0.02224904   -0.01299608
     atom    2 type  2   force =    -0.00595969    0.02224904    0.01299608
     atom    3 type  2   force =     0.01628839    0.01628576   -0.01299608
     atom    4 type  2   force =    -0.01628839   -0.01628576    0.01299608
     atom    5 type  2   force =    -0.02224808    0.00596328   -0.01299608
     atom    6 type  2   force =     0.02224808   -0.00596328    0.01299608
     atom    7 type  2   force =     0.01802339   -0.01382128    0.01139745
     atom    8 type  2   force =    -0.01802339    0.01382128   -0.01139745
     atom    9 type  2   force =     0.00295789    0.02251935    0.01139745
     atom   10 type  2   force =    -0.00295789   -0.02251935   -0.01139745
     atom   11 type  2   force =    -0.02098127   -0.00869807    0.01139745
     atom   12 type  2   force =     0.02098127    0.00869807   -0.01139745
     atom   13 type  1   force =    -0.00905651    0.01791862   -0.00848578
     atom   14 type  1   force =     0.00905651   -0.01791862    0.00848578
     atom   15 type  1   force =    -0.01098973   -0.01680248   -0.00848578
     atom   16 type  1   force =     0.01098973    0.01680248    0.00848578
     atom   17 type  1   force =     0.02004624   -0.00111614   -0.00848578
     atom   18 type  1   force =    -0.02004624    0.00111614    0.00848578
     atom   19 type  1   force =     0.00474263    0.00360242    0.02259537
     atom   20 type  1   force =    -0.00474263   -0.00360242   -0.02259537
     atom   21 type  1   force =    -0.00549110    0.00230603    0.02259537
     atom   22 type  1   force =     0.00549110   -0.00230603   -0.02259537
     atom   23 type  1   force =     0.00074847   -0.00590845    0.02259537
     atom   24 type  1   force =    -0.00074847    0.00590845   -0.02259537
     atom   25 type  1   force =     0.00682582    0.02212291   -0.00014580
     atom   26 type  1   force =    -0.00682582   -0.02212291    0.00014580
     atom   27 type  1   force =    -0.02257191   -0.00515012   -0.00014580
     atom   28 type  1   force =     0.02257191    0.00515012    0.00014580
     atom   29 type  1   force =     0.01574609   -0.01697279   -0.00014580
     atom   30 type  1   force =    -0.01574609    0.01697279    0.00014580
     atom   31 type  1   force =     0.01453986   -0.01372265   -0.01146912
     atom   32 type  1   force =    -0.01453986    0.01372265    0.01146912
     atom   33 type  1   force =     0.00461424    0.01945321   -0.01146912
     atom   34 type  1   force =    -0.00461424   -0.01945321    0.01146912
     atom   35 type  1   force =    -0.01915410   -0.00573056   -0.01146912
     atom   36 type  1   force =     0.01915410    0.00573056    0.01146912

     Total force =     0.143533     Total SCF correction =     0.000153


     Computing stress (Cartesian axis) and pressure

          total   stress  (Ry/bohr**3)                   (kbar)     P=       27.93
   0.00018331   0.00000000  -0.00000000           26.97        0.00       -0.00
  -0.00000000   0.00018331   0.00000000           -0.00       26.97        0.00
  -0.00000000   0.00000000   0.00020297           -0.00        0.00       29.86


     Writing all to output data dir ./iceII/iceII.save/ :
     XML data file, charge density, pseudopotentials, collected wavefunctions

     init_run     :      0.91s CPU      0.97s WALL (       1 calls)
     electrons    :     11.55s CPU     11.89s WALL (       1 calls)
     forces       :      0.12s CPU      0.14s WALL (       1 calls)
     stress       :      0.81s CPU      0.84s WALL (       1 calls)

     Called by init_run:
     wfcinit      :      0.34s CPU      0.35s WALL (       1 calls)
     potinit      :      0.04s CPU      0.06s WALL (       1 calls)
     hinit0       :      0.39s CPU      0.40s WALL (       1 calls)

     Called by electrons:
     c_bands      :      9.58s CPU      9.82s WALL (      14 calls)
     sum_band     :      1.44s CPU      1.48s WALL (      14 calls)
     v_of_rho     :      0.34s CPU      0.37s WALL (      15 calls)
     newd         :      0.10s CPU      0.10s WALL (      15 calls)
     mix_rho      :      0.05s CPU      0.06s WALL (      14 calls)

     Called by c_bands:
     init_us_2    :      0.15s CPU      0.17s WALL (     124 calls)
     cegterg      :      9.26s CPU      9.45s WALL (      56 calls)

     Called by *egterg:
     cdiaghg      :      0.72s CPU      0.73s WALL (     193 calls)
     h_psi        :      7.34s CPU      7.45s WALL (     197 calls)
     s_psi        :      0.28s CPU      0.30s WALL (     197 calls)
     g_psi        :      0.02s CPU      0.02s WALL (     137 calls)

     Called by h_psi:
     h_psi:calbec :      0.52s CPU      0.52s WALL (     197 calls)
     vloc_psi     :      6.45s CPU      6.55s WALL (     197 calls)
     add_vuspsi   :      0.31s CPU      0.32s WALL (     197 calls)

     General routines
     calbec       :      0.71s CPU      0.71s WALL (     273 calls)
     fft          :      0.59s CPU      0.62s WALL (     173 calls)
     ffts         :      0.03s CPU      0.03s WALL (      14 calls)
     fftw         :      6.80s CPU      6.90s WALL (   18816 calls)

     Parallel routines

     PWSCF        :     13.74s CPU     14.48s WALL


   This run was terminated on:  17:56:11  23Mar2026            

=------------------------------------------------------------------------------=
   JOB DONE.
=------------------------------------------------------------------------------=
