
     Program PWSCF v.7.3.1 starts on 23Mar2026 at 17:56:15 

     This program is part of the open-source Quantum ESPRESSO suite
     for quantum simulation of materials; please cite
         "P. Giannozzi et al., J. Phys.:Condens. Matter 21 395502 (2009);
         "P. Giannozzi et al., J. Phys.:Condens. Matter 29 465901 (2017);
         "P. Giannozzi et al., J. Chem. Phys. 152 154105 (2020);
          URL http://www.quantum-espresso.org", 
     in publications or presentations arising from this work. More details at
     http://www.quantum-espresso.org/quote

     Parallel version (MPI), running on   128 processors

     MPI processes distributed on     1 nodes
     242899 MiB available memory on the printing compute node when the environment starts

     Waiting for input...
     Reading input from standard input

     Current dimensions of program PWSCF are:
     Max number of different atomic species (ntypx) = 10
     Max number of k-points (npk) =  40000
     Max angular momentum in pseudopotentials (lmaxx) =  4

     K-points division:     npool     =       4
     R & G space division:  proc/nbgrp/npool/nimage =      32
     Subspace diagonalization in iterative solution of the eigenvalue problem:
     a serial algorithm will be used


     Parallelization info
     --------------------
     sticks:   dense  smooth     PW     G-vecs:    dense   smooth      PW
     Min         173     173     50                 7139     7139    1135
     Max         174     174     51                 7142     7142    1139
     Sum        5565    5565   1629               228509   228509   36415

     Using Slab Decomposition



     bravais-lattice index     =            5
     lattice parameter (alat)  =      14.5256  a.u.
     unit-cell volume          =    1980.1520 (a.u.)^3
     number of atoms/cell      =           36
     number of atomic types    =            2
     number of electrons       =        96.00
     number of Kohn-Sham states=           48
     kinetic-energy cutoff     =      90.0000  Ry
     charge density cutoff     =     360.0000  Ry
     scf convergence threshold =      1.0E-07
     mixing beta               =       0.7000
     number of iterations used =            8  plain     mixing
     Exchange-correlation=  SLA  PW   PBE  PBE
                           (   1   4   3   4   0   0   0)

     celldm(1)=  14.525643  celldm(2)=   0.000000  celldm(3)=   0.000000
     celldm(4)=  -0.392337  celldm(5)=   0.000000  celldm(6)=   0.000000

     crystal axes: (cart. coord. in units of alat)
               a(1) = (   0.834367  -0.481722   0.267909 )  
               a(2) = (   0.000000   0.963444   0.267909 )  
               a(3) = (  -0.834367  -0.481722   0.267909 )  

     reciprocal axes: (cart. coord. in units 2 pi/alat)
               b(1) = (  0.599257 -0.345981  1.244203 )  
               b(2) = (  0.000000  0.691962  1.244203 )  
               b(3) = ( -0.599257 -0.345981  1.244203 )  


     PseudoPot. # 1 for H  read from file:
     ./H.pbe-van_ak.UPF
     MD5 check sum: 077eb6d537518a38cb46c6de387227b7
     Pseudo is Ultrasoft, Zval =  1.0
     Generated by new atomic code, or converted to UPF format
     Using radial grid of  615 points,  1 beta functions with: 
                l(1) =   0
     Q(r) pseudized with  8 coefficients,  rinner =    0.800

     PseudoPot. # 2 for O  read from file:
     ./O.pbe-van_ak.UPF
     MD5 check sum: 78c19812648e8988a0fe644b0f25305e
     Pseudo is Ultrasoft, Zval =  6.0
     Generated by new atomic code, or converted to UPF format
     Using radial grid of  737 points,  4 beta functions with: 
                l(1) =   0
                l(2) =   0
                l(3) =   1
                l(4) =   1
     Q(r) pseudized with  8 coefficients,  rinner =    0.800   0.800   0.800


     atomic species   valence    mass     pseudopotential
     H                 1.00     1.00800     H ( 1.00)
     O                 6.00    16.00000     O ( 1.00)

      6 Sym. Ops., with inversion, found



   Cartesian axes

     site n.     atom                  positions (alat units)
         1        O      tau(   1) = (  -0.4910119  -0.5205722   0.3052394  )
         2        O      tau(   2) = (   0.4910119   0.5205722   0.4984877  )
         3        O      tau(   3) = (   0.6963347  -0.1649427   0.3052394  )
         4        O      tau(   4) = (  -0.6963347   0.1649427   0.4984877  )
         5        O      tau(   5) = (  -0.2053228   0.6855149   0.3052394  )
         6        O      tau(   6) = (   0.2053228  -0.6855149   0.4984877  )
         7        O      tau(   7) = (   0.1229870   0.3303028   0.4196306  )
         8        O      tau(   8) = (  -0.1229870  -0.3303028   0.3840965  )
         9        O      tau(   9) = (  -0.3475441  -0.0586415   0.4196306  )
        10        O      tau(  10) = (   0.3475441   0.0586415   0.3840965  )
        11        O      tau(  11) = (   0.2245571  -0.2716613   0.4196306  )
        12        O      tau(  12) = (  -0.2245571   0.2716612   0.3840965  )
        13        H      tau(  13) = (  -0.5446961  -0.4126715   0.2597134  )
        14        H      tau(  14) = (   0.5446961   0.4126715   0.5440137  )
        15        H      tau(  15) = (   0.6297321  -0.2653849   0.2597134  )
        16        H      tau(  16) = (  -0.6297321   0.2653849   0.5440137  )
        17        H      tau(  17) = (  -0.0850360   0.6780564   0.2597134  )
        18        H      tau(  18) = (   0.0850360  -0.6780564   0.5440137  )
        19        H      tau(  19) = (  -0.4726389  -0.4926041   0.4288765  )
        20        H      tau(  20) = (   0.4726389   0.4926042   0.3748506  )
        21        H      tau(  21) = (   0.6629272  -0.1630152   0.4288765  )
        22        H      tau(  22) = (  -0.6629272   0.1630152   0.3748506  )
        23        H      tau(  23) = (  -0.1902883   0.6556194   0.4288765  )
        24        H      tau(  24) = (   0.1902883  -0.6556194   0.3748506  )
        25        H      tau(  25) = (   0.2676988  -0.1507235   0.4151121  )
        26        H      tau(  26) = (  -0.2676988   0.1507234   0.3886151  )
        27        H      tau(  27) = (  -0.0033191   0.3071957   0.4151121  )
        28        H      tau(  28) = (   0.0033191  -0.3071957   0.3886151  )
        29        H      tau(  29) = (  -0.2643797  -0.1564722   0.4151121  )
        30        H      tau(  30) = (   0.2643797   0.1564723   0.3886151  )
        31        H      tau(  31) = (   0.3102941  -0.3416444   0.3555952  )
        32        H      tau(  32) = (  -0.3102941   0.3416444   0.4481319  )
        33        H      tau(  33) = (   0.1407257   0.4395448   0.3555952  )
        34        H      tau(  34) = (  -0.1407257  -0.4395448   0.4481319  )
        35        H      tau(  35) = (  -0.4510198  -0.0979003   0.3555952  )
        36        H      tau(  36) = (   0.4510198   0.0979003   0.4481319  )

     number of k points=    14
                       cart. coord. in units 2pi/alat
        k(    1) = (   0.0000000   0.0000000   0.0000000), wk =   0.0312500
        k(    2) = (  -0.1498141  -0.0864952   0.3110508), wk =   0.1875000
        k(    3) = (   0.2996283   0.1729905  -0.6221017), wk =   0.0937500
        k(    4) = (  -0.1498141   0.0864952   0.6221017), wk =   0.1875000
        k(    5) = (   0.2996283   0.3459809  -0.3110508), wk =   0.1875000
        k(    6) = (   0.1498141   0.2594857   0.0000000), wk =   0.1875000
        k(    7) = (   0.2996283  -0.1729905  -1.2442034), wk =   0.0937500
        k(    8) = (   0.0000000   0.0000000   0.9331525), wk =   0.0625000
        k(    9) = (   0.4494424   0.2594857   0.0000000), wk =   0.1875000
        k(   10) = (   0.2996283   0.1729905   0.3110508), wk =   0.1875000
        k(   11) = (   0.4494424  -0.2594857  -0.9331525), wk =   0.1875000
        k(   12) = (   0.2996283  -0.3459809  -0.6221017), wk =   0.1875000
        k(   13) = (   0.0000000   0.0000000  -1.8663050), wk =   0.0312500
        k(   14) = (   0.2996283  -0.3459809   0.3110508), wk =   0.1875000

     Dense  grid:   228509 G-vectors     FFT dimensions: (  90,  90,  90)

     Estimated max dynamical RAM per process >      15.06 MB

     Estimated total dynamical RAM >       1.72 GB

     Initial potential from superposition of free atoms

     starting charge      95.9998, renormalised to      96.0000
     Starting wfcs are   72 randomized atomic wfcs

     total cpu time spent up to now is        1.2 secs

     per-process dynamical memory:    19.4 Mb

     Self-consistent Calculation

     iteration #  1     ecut=    90.00 Ry     beta= 0.70
     Davidson diagonalization with overlap
     ethr =  1.00E-02,  avg # of iterations =  2.0

     total cpu time spent up to now is        2.0 secs

     total energy              =    -412.32984736 Ry
     estimated scf accuracy    <       3.98039523 Ry

     iteration #  2     ecut=    90.00 Ry     beta= 0.70
     Davidson diagonalization with overlap
     ethr =  4.15E-03,  avg # of iterations =  3.0

     total cpu time spent up to now is        3.0 secs

     total energy              =    -413.59689793 Ry
     estimated scf accuracy    <       2.25750644 Ry

     iteration #  3     ecut=    90.00 Ry     beta= 0.70
     Davidson diagonalization with overlap
     ethr =  2.35E-03,  avg # of iterations =  2.0

     negative rho (up, down):  1.711E-07 0.000E+00

     total cpu time spent up to now is        3.8 secs

     total energy              =    -413.88537552 Ry
     estimated scf accuracy    <       0.09075497 Ry

     iteration #  4     ecut=    90.00 Ry     beta= 0.70
     Davidson diagonalization with overlap
     ethr =  9.45E-05,  avg # of iterations =  4.0

     negative rho (up, down):  3.398E-07 0.000E+00

     total cpu time spent up to now is        5.0 secs

     total energy              =    -413.95521587 Ry
     estimated scf accuracy    <       0.11133590 Ry

     iteration #  5     ecut=    90.00 Ry     beta= 0.70
     Davidson diagonalization with overlap
     ethr =  9.45E-05,  avg # of iterations =  2.0

     negative rho (up, down):  3.901E-07 0.000E+00

     total cpu time spent up to now is        5.7 secs

     total energy              =    -413.95964931 Ry
     estimated scf accuracy    <       0.01614539 Ry

     iteration #  6     ecut=    90.00 Ry     beta= 0.70
     Davidson diagonalization with overlap
     ethr =  1.68E-05,  avg # of iterations =  2.0

     negative rho (up, down):  4.761E-07 0.000E+00

     total cpu time spent up to now is        6.4 secs

     total energy              =    -413.95892774 Ry
     estimated scf accuracy    <       0.00467259 Ry

     iteration #  7     ecut=    90.00 Ry     beta= 0.70
     Davidson diagonalization with overlap
     ethr =  4.87E-06,  avg # of iterations =  2.1

     negative rho (up, down):  4.662E-07 0.000E+00

     total cpu time spent up to now is        7.3 secs

     total energy              =    -413.96128486 Ry
     estimated scf accuracy    <       0.00050234 Ry

     iteration #  8     ecut=    90.00 Ry     beta= 0.70
     Davidson diagonalization with overlap
     ethr =  5.23E-07,  avg # of iterations =  3.0

     negative rho (up, down):  4.403E-07 0.000E+00

     total cpu time spent up to now is        8.1 secs

     total energy              =    -413.96094124 Ry
     estimated scf accuracy    <       0.00132750 Ry

     iteration #  9     ecut=    90.00 Ry     beta= 0.70
     Davidson diagonalization with overlap
     ethr =  5.23E-07,  avg # of iterations =  2.0

     negative rho (up, down):  4.187E-07 0.000E+00

     total cpu time spent up to now is        8.9 secs

     total energy              =    -413.96087205 Ry
     estimated scf accuracy    <       0.00034200 Ry

     iteration # 10     ecut=    90.00 Ry     beta= 0.70
     Davidson diagonalization with overlap
     ethr =  3.56E-07,  avg # of iterations =  2.0

     negative rho (up, down):  4.156E-07 0.000E+00

     total cpu time spent up to now is        9.7 secs

     total energy              =    -413.96092959 Ry
     estimated scf accuracy    <       0.00001545 Ry

     iteration # 11     ecut=    90.00 Ry     beta= 0.70
     Davidson diagonalization with overlap
     ethr =  1.61E-08,  avg # of iterations =  4.0

     negative rho (up, down):  4.187E-07 0.000E+00

     total cpu time spent up to now is       10.7 secs

     total energy              =    -413.96093829 Ry
     estimated scf accuracy    <       0.00000111 Ry

     iteration # 12     ecut=    90.00 Ry     beta= 0.70
     Davidson diagonalization with overlap
     ethr =  1.16E-09,  avg # of iterations =  4.0

     negative rho (up, down):  4.168E-07 0.000E+00

     total cpu time spent up to now is       11.7 secs

     total energy              =    -413.96093816 Ry
     estimated scf accuracy    <       0.00000261 Ry

     iteration # 13     ecut=    90.00 Ry     beta= 0.70
     Davidson diagonalization with overlap
     ethr =  1.16E-09,  avg # of iterations =  2.0

     negative rho (up, down):  4.162E-07 0.000E+00

     total cpu time spent up to now is       12.6 secs

     total energy              =    -413.96093833 Ry
     estimated scf accuracy    <       0.00000023 Ry

     iteration # 14     ecut=    90.00 Ry     beta= 0.70
     Davidson diagonalization with overlap
     ethr =  2.43E-10,  avg # of iterations =  3.0

     negative rho (up, down):  4.164E-07 0.000E+00

     total cpu time spent up to now is       13.6 secs

     End of self-consistent calculation

          k = 0.0000 0.0000 0.0000 ( 28625 PWs)   bands (ev):

   -20.8425 -20.3559 -20.3559 -20.1267 -20.1267 -20.1130 -20.0691 -20.0691
   -20.0399 -19.7389 -19.7389 -19.4001  -8.3641  -8.2386  -8.2222  -8.2222
    -8.1339  -8.1339  -7.8139  -7.8139  -7.8018  -7.8018  -7.7992  -7.7441
    -6.6644  -5.5094  -5.5094  -4.9509  -4.9509  -4.6849  -4.6849  -4.6238
    -4.3915  -3.7288  -3.7288  -2.9816  -2.6560  -2.6560  -2.5626  -2.4552
    -2.4552  -2.3939  -2.3177  -2.3118  -2.3118  -2.2141  -2.1787  -2.1787

          k =-0.1498-0.0865 0.3111 ( 28556 PWs)   bands (ev):

   -20.7659 -20.3920 -20.3450 -20.2761 -20.2383 -20.1655 -20.0243 -19.9640
   -19.9005 -19.7484 -19.7041 -19.4612  -8.3275  -8.2654  -8.2320  -8.2092
    -8.1311  -8.0882  -7.8886  -7.8480  -7.8153  -7.7562  -7.7152  -7.6907
    -6.4693  -5.6845  -5.5361  -5.2382  -5.0525  -4.7891  -4.5061  -4.4248
    -4.2222  -3.7328  -3.6599  -3.1289  -2.7415  -2.6813  -2.5853  -2.5287
    -2.5059  -2.4399  -2.3667  -2.3036  -2.2677  -2.2352  -2.1808  -2.1672

          k = 0.2996 0.1730-0.6221 ( 28538 PWs)   bands (ev):

   -20.5815 -20.5494 -20.3720 -20.3399 -20.2594 -20.2281 -19.9738 -19.9297
   -19.8007 -19.7314 -19.6422 -19.5860  -8.2837  -8.2744  -8.2300  -8.2145
    -8.1401  -8.0659  -7.8912  -7.8650  -7.8232  -7.7682  -7.6479  -7.6316
    -6.0881  -5.9692  -5.5659  -5.5268  -5.0271  -4.9828  -4.3617  -4.3110
    -3.8522  -3.8235  -3.6319  -3.3774  -2.8146  -2.7034  -2.6028  -2.5997
    -2.5329  -2.4390  -2.4192  -2.3381  -2.3084  -2.2230  -2.1495  -2.1466

          k =-0.1498 0.0865 0.6221 ( 28531 PWs)   bands (ev):

   -20.6148 -20.4546 -20.4436 -20.3189 -20.2923 -20.2198 -19.9703 -19.8821
   -19.8355 -19.7111 -19.6862 -19.5649  -8.2838  -8.2602  -8.2472  -8.2231
    -8.1269  -8.0581  -7.8883  -7.8702  -7.8627  -7.7058  -7.6706  -7.6393
    -6.1270  -5.8283  -5.7805  -5.3227  -5.1669  -4.9643  -4.3905  -4.1383
    -4.0527  -3.7206  -3.6311  -3.4026  -2.8035  -2.7264  -2.6059  -2.5635
    -2.5033  -2.4821  -2.4279  -2.3201  -2.3083  -2.2319  -2.1698  -2.1256

          k = 0.2996 0.3460-0.3111 ( 28562 PWs)   bands (ev):

   -20.6608 -20.4871 -20.4131 -20.3394 -20.2526 -20.1783 -19.9900 -19.8849
   -19.7910 -19.7731 -19.6627 -19.5517  -8.2955  -8.2864  -8.2100  -8.1980
    -8.1357  -8.0763  -7.9628  -7.9337  -7.8672  -7.7073  -7.6927  -7.6402
    -6.1744  -5.8170  -5.6125  -5.3598  -5.3289  -4.7628  -4.3395  -4.1929
    -4.0695  -3.7669  -3.6310  -3.3315  -2.7342  -2.6787  -2.6163  -2.5454
    -2.5001  -2.4240  -2.3919  -2.3674  -2.2853  -2.2739  -2.1481  -2.0944

          k = 0.1498 0.2595 0.0000 ( 28545 PWs)   bands (ev):

   -20.7849 -20.4343 -20.3754 -20.2509 -20.1933 -20.1176 -20.0422 -19.9712
   -19.8965 -19.7484 -19.7090 -19.4521  -8.3403  -8.2627  -8.2260  -8.1969
    -8.1244  -8.1135  -7.9563  -7.9013  -7.8287  -7.7575  -7.7324  -7.6978
    -6.4754  -5.5738  -5.5082  -5.2630  -5.2226  -4.6210  -4.4841  -4.3434
    -4.2628  -3.7593  -3.7203  -3.0746  -2.6561  -2.6344  -2.6034  -2.5095
    -2.4631  -2.4252  -2.3571  -2.3379  -2.2902  -2.2422  -2.1414  -2.1259

          k = 0.2996-0.1730-1.2442 ( 28582 PWs)   bands (ev):

   -20.6422 -20.6129 -20.3898 -20.3065 -20.1882 -20.1508 -19.9679 -19.9673
   -19.7966 -19.7817 -19.6056 -19.5658  -8.3068  -8.2777  -8.2141  -8.1932
    -8.1009  -8.1006  -8.0434  -7.9634  -7.8525  -7.7498  -7.7158  -7.6649
    -6.0231  -6.0019  -5.5502  -5.4761  -5.1283  -4.7528  -4.3019  -4.2338
    -4.0318  -3.8828  -3.5301  -3.3301  -2.6610  -2.6261  -2.6019  -2.5458
    -2.4741  -2.4211  -2.4074  -2.3355  -2.3240  -2.2517  -2.1049  -2.0930

          k = 0.0000 0.0000 0.9332 ( 28611 PWs)   bands (ev):

   -20.5379 -20.5379 -20.4917 -20.4131 -20.2090 -20.2090 -19.9042 -19.9042
   -19.7651 -19.6787 -19.6787 -19.6550  -8.2831  -8.2831  -8.2279  -8.1786
    -8.1245  -8.1245  -7.9971  -7.9158  -7.9158  -7.6582  -7.6582  -7.6235
    -5.9046  -5.9046  -5.8297  -5.5268  -5.0694  -5.0694  -4.0942  -4.0942
    -3.9606  -3.7031  -3.7031  -3.5765  -2.6855  -2.6855  -2.5827  -2.5500
    -2.4716  -2.4716  -2.4004  -2.3469  -2.3469  -2.2156  -2.2156  -2.0668

          k = 0.4494 0.2595 0.0000 ( 28569 PWs)   bands (ev):

   -20.6780 -20.5003 -20.4969 -20.3071 -20.1501 -20.1200 -20.0147 -19.9772
   -19.8034 -19.7160 -19.6690 -19.5424  -8.3045  -8.2684  -8.2411  -8.1617
    -8.1370  -8.0698  -8.0611  -7.9373  -7.8897  -7.7295  -7.6972  -7.6848
    -6.1564  -5.7164  -5.6737  -5.5366  -5.0874  -4.7480  -4.3725  -4.2609
    -3.9457  -3.7786  -3.6748  -3.2916  -2.6450  -2.6283  -2.6134  -2.5406
    -2.4960  -2.4349  -2.3906  -2.3623  -2.2819  -2.2265  -2.1569  -2.0708

          k = 0.2996 0.1730 0.3111 ( 28541 PWs)   bands (ev):

   -20.7120 -20.4408 -20.3597 -20.3381 -20.2418 -20.1781 -19.9905 -19.9484
   -19.8563 -19.7448 -19.6734 -19.5007  -8.3093  -8.2702  -8.2359  -8.1729
    -8.1430  -8.0546  -7.9641  -7.8480  -7.8190  -7.7983  -7.7367  -7.6696
    -6.3017  -5.6769  -5.6137  -5.2871  -5.2361  -4.7694  -4.4212  -4.2642
    -4.2181  -3.7137  -3.6467  -3.1910  -2.7623  -2.6675  -2.6220  -2.5848
    -2.5180  -2.4348  -2.3688  -2.3446  -2.2692  -2.2370  -2.1583  -2.1092

          k = 0.4494-0.2595-0.9332 ( 28567 PWs)   bands (ev):

   -20.5727 -20.5686 -20.4221 -20.3705 -20.2339 -20.1468 -20.0270 -19.9219
   -19.7763 -19.7240 -19.6670 -19.5532  -8.2879  -8.2643  -8.2380  -8.1601
    -8.1279  -8.0341  -8.0075  -7.9119  -7.8395  -7.7982  -7.7226  -7.6800
    -6.0014  -5.8378  -5.6613  -5.4747  -5.1883  -4.7573  -4.5102  -4.2108
    -3.9399  -3.7016  -3.6700  -3.3005  -2.7626  -2.6850  -2.6480  -2.5911
    -2.5583  -2.4633  -2.3621  -2.3258  -2.2734  -2.2435  -2.1563  -2.0640

          k = 0.2996-0.3460-0.6221 ( 28562 PWs)   bands (ev):

   -20.5443 -20.5090 -20.4069 -20.3983 -20.2616 -20.2501 -19.9507 -19.9296
   -19.7680 -19.7460 -19.6611 -19.5676  -8.2924  -8.2382  -8.2138  -8.1979
    -8.1669  -8.0166  -7.9212  -7.8952  -7.8167  -7.7779  -7.6865  -7.6753
    -5.9486  -5.9150  -5.6100  -5.5509  -5.0856  -5.0429  -4.3147  -4.2398
    -3.8986  -3.8690  -3.5638  -3.3635  -2.8335  -2.7031  -2.6552  -2.6385
    -2.5539  -2.4769  -2.3538  -2.3297  -2.3143  -2.2168  -2.1952  -2.0649

          k = 0.0000 0.0000-1.8663 ( 28524 PWs)   bands (ev):

   -20.4992 -20.4587 -20.4045 -20.4045 -20.3371 -20.3371 -19.8682 -19.8682
   -19.8034 -19.8034 -19.6606 -19.5473  -8.2939  -8.1929  -8.1929  -8.1872
    -8.1872  -7.9893  -7.9505  -7.9152  -7.7899  -7.7899  -7.7341  -7.7341
    -5.9490  -5.7867  -5.4265  -5.4265  -5.3143  -5.3143  -4.0795  -4.0795
    -4.0306  -4.0306  -3.5082  -3.3427  -2.8151  -2.6952  -2.6952  -2.6816
    -2.6816  -2.4358  -2.3266  -2.2669  -2.2669  -2.2559  -2.2559  -2.0187

          k = 0.2996-0.3460 0.3111 ( 28562 PWs)   bands (ev):

   -20.6602 -20.4947 -20.3899 -20.3583 -20.2501 -20.1792 -19.9850 -19.8770
   -19.8363 -19.7214 -19.6818 -19.5506  -8.3049  -8.2682  -8.2243  -8.1780
    -8.1499  -8.0791  -7.9779  -7.9187  -7.8638  -7.7086  -7.6849  -7.6476
    -6.1785  -5.7961  -5.6611  -5.3296  -5.2851  -4.8255  -4.4191  -4.0859
    -3.9797  -3.8254  -3.6984  -3.3019  -2.7449  -2.6487  -2.6229  -2.5468
    -2.5040  -2.4309  -2.3912  -2.3732  -2.3155  -2.2323  -2.1532  -2.0965

     highest occupied level (ev):    -2.0187

!    total energy              =    -413.96093843 Ry
     estimated scf accuracy    <       0.00000004 Ry

     The total energy is the sum of the following terms:
     one-electron contribution =    -286.10815607 Ry
     hartree contribution      =     178.12333832 Ry
     xc contribution           =    -101.84524544 Ry
     ewald contribution        =    -204.13087524 Ry

     convergence has been achieved in  14 iterations

     Forces acting on atoms (cartesian axes, Ry/au):

     atom    1 type  2   force =     0.00495672   -0.01891617   -0.01095522
     atom    2 type  2   force =    -0.00495672    0.01891617    0.01095522
     atom    3 type  2   force =     0.01390353    0.01375073   -0.01095522
     atom    4 type  2   force =    -0.01390353   -0.01375073    0.01095522
     atom    5 type  2   force =    -0.01886025    0.00516544   -0.01095522
     atom    6 type  2   force =     0.01886025   -0.00516544    0.01095522
     atom    7 type  2   force =     0.01540415   -0.01171932    0.00975272
     atom    8 type  2   force =    -0.01540415    0.01171932   -0.00975272
     atom    9 type  2   force =     0.00244715    0.01920005    0.00975272
     atom   10 type  2   force =    -0.00244715   -0.01920005   -0.00975272
     atom   11 type  2   force =    -0.01785130   -0.00748073    0.00975272
     atom   12 type  2   force =     0.01785130    0.00748073   -0.00975272
     atom   13 type  1   force =    -0.00768167    0.01519636   -0.00709873
     atom   14 type  1   force =     0.00768167   -0.01519636    0.00709873
     atom   15 type  1   force =    -0.00931960   -0.01425070   -0.00709873
     atom   16 type  1   force =     0.00931960    0.01425070    0.00709873
     atom   17 type  1   force =     0.01700127   -0.00094566   -0.00709873
     atom   18 type  1   force =    -0.01700127    0.00094566    0.00709873
     atom   19 type  1   force =     0.00411362    0.00303198    0.01919997
     atom   20 type  1   force =    -0.00411362   -0.00303198   -0.01919997
     atom   21 type  1   force =    -0.00468258    0.00204651    0.01919997
     atom   22 type  1   force =     0.00468258   -0.00204651   -0.01919997
     atom   23 type  1   force =     0.00056897   -0.00507849    0.01919997
     atom   24 type  1   force =    -0.00056897    0.00507849   -0.01919997
     atom   25 type  1   force =     0.00584683    0.01885793   -0.00012909
     atom   26 type  1   force =    -0.00584683   -0.01885793    0.00012909
     atom   27 type  1   force =    -0.01925486   -0.00436546   -0.00012909
     atom   28 type  1   force =     0.01925486    0.00436546    0.00012909
     atom   29 type  1   force =     0.01340803   -0.01449247   -0.00012909
     atom   30 type  1   force =    -0.01340803    0.01449247    0.00012909
     atom   31 type  1   force =     0.01225632   -0.01161262   -0.00971222
     atom   32 type  1   force =    -0.01225632    0.01161262    0.00971222
     atom   33 type  1   force =     0.00392866    0.01642060   -0.00971222
     atom   34 type  1   force =    -0.00392866   -0.01642060    0.00971222
     atom   35 type  1   force =    -0.01618498   -0.00480798   -0.00971222
     atom   36 type  1   force =     0.01618498    0.00480798    0.00971222

     Total force =     0.121896     Total SCF correction =     0.000128


     Computing stress (Cartesian axis) and pressure

          total   stress  (Ry/bohr**3)                   (kbar)     P=       22.42
   0.00014532   0.00000000  -0.00000000           21.38        0.00       -0.00
  -0.00000000   0.00014532   0.00000000           -0.00       21.38        0.00
  -0.00000000   0.00000000   0.00016657           -0.00        0.00       24.50


     Writing all to output data dir ./iceII/iceII.save/ :
     XML data file, charge density, pseudopotentials, collected wavefunctions

     init_run     :      0.94s CPU      0.97s WALL (       1 calls)
     electrons    :     12.05s CPU     12.46s WALL (       1 calls)
     forces       :      0.13s CPU      0.14s WALL (       1 calls)
     stress       :      0.84s CPU      0.85s WALL (       1 calls)

     Called by init_run:
     wfcinit      :      0.34s CPU      0.35s WALL (       1 calls)
     potinit      :      0.05s CPU      0.06s WALL (       1 calls)
     hinit0       :      0.39s CPU      0.40s WALL (       1 calls)

     Called by electrons:
     c_bands      :     10.07s CPU     10.36s WALL (      14 calls)
     sum_band     :      1.45s CPU      1.48s WALL (      14 calls)
     v_of_rho     :      0.33s CPU      0.36s WALL (      15 calls)
     newd         :      0.12s CPU      0.13s WALL (      15 calls)
     mix_rho      :      0.05s CPU      0.05s WALL (      14 calls)

     Called by c_bands:
     init_us_2    :      0.14s CPU      0.18s WALL (     124 calls)
     cegterg      :      9.84s CPU     10.07s WALL (      56 calls)

     Called by *egterg:
     cdiaghg      :      0.78s CPU      0.79s WALL (     205 calls)
     h_psi        :      7.74s CPU      7.84s WALL (     209 calls)
     s_psi        :      0.29s CPU      0.32s WALL (     209 calls)
     g_psi        :      0.02s CPU      0.02s WALL (     149 calls)

     Called by h_psi:
     h_psi:calbec :      0.54s CPU      0.55s WALL (     209 calls)
     vloc_psi     :      6.80s CPU      6.88s WALL (     209 calls)
     add_vuspsi   :      0.33s CPU      0.34s WALL (     209 calls)

     General routines
     calbec       :      0.73s CPU      0.74s WALL (     285 calls)
     fft          :      0.57s CPU      0.61s WALL (     173 calls)
     ffts         :      0.02s CPU      0.02s WALL (      14 calls)
     fftw         :      7.11s CPU      7.18s WALL (   19632 calls)

     Parallel routines

     PWSCF        :     14.25s CPU     15.09s WALL


   This run was terminated on:  17:56:30  23Mar2026            

=------------------------------------------------------------------------------=
   JOB DONE.
=------------------------------------------------------------------------------=
