
     Program PWSCF v.7.3.1 starts on 21Mar2026 at 19: 6:33 

     This program is part of the open-source Quantum ESPRESSO suite
     for quantum simulation of materials; please cite
         "P. Giannozzi et al., J. Phys.:Condens. Matter 21 395502 (2009);
         "P. Giannozzi et al., J. Phys.:Condens. Matter 29 465901 (2017);
         "P. Giannozzi et al., J. Chem. Phys. 152 154105 (2020);
          URL http://www.quantum-espresso.org", 
     in publications or presentations arising from this work. More details at
     http://www.quantum-espresso.org/quote

     Parallel version (MPI), running on   128 processors

     MPI processes distributed on     1 nodes
     242989 MiB available memory on the printing compute node when the environment starts

     Waiting for input...
     Reading input from standard input

     Current dimensions of program PWSCF are:
     Max number of different atomic species (ntypx) = 10
     Max number of k-points (npk) =  40000
     Max angular momentum in pseudopotentials (lmaxx) =  4

     K-points division:     npool     =       4
     R & G space division:  proc/nbgrp/npool/nimage =      32
     Subspace diagonalization in iterative solution of the eigenvalue problem:
     a serial algorithm will be used


     Parallelization info
     --------------------
     sticks:   dense  smooth     PW     G-vecs:    dense   smooth      PW
     Min         174     174     51                 7184     7184    1144
     Max         175     175     52                 7186     7186    1146
     Sum        5581    5581   1637               229901   229901   36649

     Using Slab Decomposition



     bravais-lattice index     =            5
     lattice parameter (alat)  =      14.5550  a.u.
     unit-cell volume          =    1992.2016 (a.u.)^3
     number of atoms/cell      =           36
     number of atomic types    =            2
     number of electrons       =        96.00
     number of Kohn-Sham states=           48
     kinetic-energy cutoff     =      90.0000  Ry
     charge density cutoff     =     360.0000  Ry
     scf convergence threshold =      1.0E-07
     mixing beta               =       0.7000
     number of iterations used =            8  plain     mixing
     Exchange-correlation=  SLA  PW   PBE  PBE
                           (   1   4   3   4   0   0   0)

     celldm(1)=  14.555048  celldm(2)=   0.000000  celldm(3)=   0.000000
     celldm(4)=  -0.392337  celldm(5)=   0.000000  celldm(6)=   0.000000

     crystal axes: (cart. coord. in units of alat)
               a(1) = (   0.834367  -0.481722   0.267909 )  
               a(2) = (   0.000000   0.963444   0.267909 )  
               a(3) = (  -0.834367  -0.481722   0.267909 )  

     reciprocal axes: (cart. coord. in units 2 pi/alat)
               b(1) = (  0.599257 -0.345981  1.244203 )  
               b(2) = ( -0.000000  0.691962  1.244203 )  
               b(3) = ( -0.599257 -0.345981  1.244203 )  


     PseudoPot. # 1 for H  read from file:
     ./H.pbe-van_ak.UPF
     MD5 check sum: 077eb6d537518a38cb46c6de387227b7
     Pseudo is Ultrasoft, Zval =  1.0
     Generated by new atomic code, or converted to UPF format
     Using radial grid of  615 points,  1 beta functions with: 
                l(1) =   0
     Q(r) pseudized with  8 coefficients,  rinner =    0.800

     PseudoPot. # 2 for O  read from file:
     ./O.pbe-van_ak.UPF
     MD5 check sum: 78c19812648e8988a0fe644b0f25305e
     Pseudo is Ultrasoft, Zval =  6.0
     Generated by new atomic code, or converted to UPF format
     Using radial grid of  737 points,  4 beta functions with: 
                l(1) =   0
                l(2) =   0
                l(3) =   1
                l(4) =   1
     Q(r) pseudized with  8 coefficients,  rinner =    0.800   0.800   0.800


     atomic species   valence    mass     pseudopotential
     H                 1.00     1.00800     H ( 1.00)
     O                 6.00    16.00000     O ( 1.00)

      6 Sym. Ops., with inversion, found



   Cartesian axes

     site n.     atom                  positions (alat units)
         1        O      tau(   1) = (  -0.4847673  -0.5197781   0.3083633  )
         2        O      tau(   2) = (   0.4847673   0.5197782   0.4953638  )
         3        O      tau(   3) = (   0.6925247  -0.1599317   0.3083633  )
         4        O      tau(   4) = (  -0.6925248   0.1599317   0.4953638  )
         5        O      tau(   5) = (  -0.2077574   0.6797099   0.3083633  )
         6        O      tau(   6) = (   0.2077574  -0.6797099   0.4953638  )
         7        O      tau(   7) = (   0.1218176   0.3323883   0.4179381  )
         8        O      tau(   8) = (  -0.1218176  -0.3323883   0.3857890  )
         9        O      tau(   9) = (  -0.3487655  -0.0606970   0.4179381  )
        10        O      tau(  10) = (   0.3487655   0.0606970   0.3857890  )
        11        O      tau(  11) = (   0.2269479  -0.2716913   0.4179381  )
        12        O      tau(  12) = (  -0.2269479   0.2716912   0.3857890  )
        13        H      tau(  13) = (  -0.5381668  -0.4032014   0.2796970  )
        14        H      tau(  14) = (   0.5381668   0.4032014   0.5240301  )
        15        H      tau(  15) = (   0.6182661  -0.2644654   0.2796970  )
        16        H      tau(  16) = (  -0.6182661   0.2644654   0.5240301  )
        17        H      tau(  17) = (  -0.0800993   0.6676668   0.2796970  )
        18        H      tau(  18) = (   0.0800993  -0.6676668   0.5240301  )
        19        H      tau(  19) = (  -0.4872704  -0.4817221   0.4326731  )
        20        H      tau(  20) = (   0.4872704   0.4817221   0.3710540  )
        21        H      tau(  21) = (   0.6608188  -0.1811275   0.4326731  )
        22        H      tau(  22) = (  -0.6608188   0.1811275   0.3710540  )
        23        H      tau(  23) = (  -0.1735484   0.6628496   0.4326731  )
        24        H      tau(  24) = (   0.1735484  -0.6628496   0.3710540  )
        25        H      tau(  25) = (   0.2703349  -0.1502973   0.4058822  )
        26        H      tau(  26) = (  -0.2703350   0.1502973   0.3978449  )
        27        H      tau(  27) = (  -0.0050062   0.3092656   0.4058822  )
        28        H      tau(  28) = (   0.0050062  -0.3092656   0.3978449  )
        29        H      tau(  29) = (  -0.2653287  -0.1589683   0.4058822  )
        30        H      tau(  30) = (   0.2653287   0.1589683   0.3978449  )
        31        H      tau(  31) = (   0.3178939  -0.3347969   0.3493534  )
        32        H      tau(  32) = (  -0.3178939   0.3347969   0.4543737  )
        33        H      tau(  33) = (   0.1309957   0.4427026   0.3493534  )
        34        H      tau(  34) = (  -0.1309956  -0.4427026   0.4543737  )
        35        H      tau(  35) = (  -0.4488895  -0.1079057   0.3493534  )
        36        H      tau(  36) = (   0.4488895   0.1079057   0.4543737  )

     number of k points=    14
                       cart. coord. in units 2pi/alat
        k(    1) = (   0.0000000   0.0000000   0.0000000), wk =   0.0312500
        k(    2) = (  -0.1498141  -0.0864952   0.3110508), wk =   0.1875000
        k(    3) = (   0.2996283   0.1729905  -0.6221017), wk =   0.0937500
        k(    4) = (  -0.1498141   0.0864952   0.6221017), wk =   0.1875000
        k(    5) = (   0.2996283   0.3459809  -0.3110508), wk =   0.1875000
        k(    6) = (   0.1498141   0.2594857   0.0000000), wk =   0.1875000
        k(    7) = (   0.2996283  -0.1729905  -1.2442034), wk =   0.0937500
        k(    8) = (   0.0000000   0.0000000   0.9331525), wk =   0.0625000
        k(    9) = (   0.4494424   0.2594857   0.0000000), wk =   0.1875000
        k(   10) = (   0.2996283   0.1729905   0.3110508), wk =   0.1875000
        k(   11) = (   0.4494424  -0.2594857  -0.9331525), wk =   0.1875000
        k(   12) = (   0.2996283  -0.3459809  -0.6221017), wk =   0.1875000
        k(   13) = (   0.0000000   0.0000000  -1.8663050), wk =   0.0312500
        k(   14) = (   0.2996283  -0.3459809   0.3110508), wk =   0.1875000

     Dense  grid:   229901 G-vectors     FFT dimensions: (  90,  90,  90)

     Estimated max dynamical RAM per process >      15.12 MB

     Estimated total dynamical RAM >       1.73 GB

     Initial potential from superposition of free atoms

     starting charge      95.9998, renormalised to      96.0000
     Starting wfcs are   72 randomized atomic wfcs

     total cpu time spent up to now is        1.2 secs

     per-process dynamical memory:    19.4 Mb

     Self-consistent Calculation

     iteration #  1     ecut=    90.00 Ry     beta= 0.70
     Davidson diagonalization with overlap
     ethr =  1.00E-02,  avg # of iterations =  2.0

     negative rho (up, down):  8.637E-08 0.000E+00

     total cpu time spent up to now is        2.0 secs

     total energy              =    -412.28574224 Ry
     estimated scf accuracy    <       3.78415930 Ry

     iteration #  2     ecut=    90.00 Ry     beta= 0.70
     Davidson diagonalization with overlap
     ethr =  3.94E-03,  avg # of iterations =  3.0

     negative rho (up, down):  9.763E-08 0.000E+00

     total cpu time spent up to now is        3.0 secs

     total energy              =    -413.48750547 Ry
     estimated scf accuracy    <       2.26692755 Ry

     iteration #  3     ecut=    90.00 Ry     beta= 0.70
     Davidson diagonalization with overlap
     ethr =  2.36E-03,  avg # of iterations =  2.0

     negative rho (up, down):  2.910E-07 0.000E+00

     total cpu time spent up to now is        3.8 secs

     total energy              =    -413.77597432 Ry
     estimated scf accuracy    <       0.09536512 Ry

     iteration #  4     ecut=    90.00 Ry     beta= 0.70
     Davidson diagonalization with overlap
     ethr =  9.93E-05,  avg # of iterations =  4.0

     negative rho (up, down):  3.727E-07 0.000E+00

     total cpu time spent up to now is        4.9 secs

     total energy              =    -413.85009410 Ry
     estimated scf accuracy    <       0.11276649 Ry

     iteration #  5     ecut=    90.00 Ry     beta= 0.70
     Davidson diagonalization with overlap
     ethr =  9.93E-05,  avg # of iterations =  2.0

     negative rho (up, down):  3.967E-07 0.000E+00

     total cpu time spent up to now is        5.6 secs

     total energy              =    -413.85351719 Ry
     estimated scf accuracy    <       0.01915499 Ry

     iteration #  6     ecut=    90.00 Ry     beta= 0.70
     Davidson diagonalization with overlap
     ethr =  2.00E-05,  avg # of iterations =  2.0

     negative rho (up, down):  4.185E-07 0.000E+00

     total cpu time spent up to now is        6.3 secs

     total energy              =    -413.85280570 Ry
     estimated scf accuracy    <       0.00667205 Ry

     iteration #  7     ecut=    90.00 Ry     beta= 0.70
     Davidson diagonalization with overlap
     ethr =  6.95E-06,  avg # of iterations =  3.0

     negative rho (up, down):  4.256E-07 0.000E+00

     total cpu time spent up to now is        7.2 secs

     total energy              =    -413.85431328 Ry
     estimated scf accuracy    <       0.00015846 Ry

     iteration #  8     ecut=    90.00 Ry     beta= 0.70
     Davidson diagonalization with overlap
     ethr =  1.65E-07,  avg # of iterations =  6.0

     negative rho (up, down):  4.231E-07 0.000E+00

     total cpu time spent up to now is        8.5 secs

     total energy              =    -413.85439514 Ry
     estimated scf accuracy    <       0.00092286 Ry

     iteration #  9     ecut=    90.00 Ry     beta= 0.70
     Davidson diagonalization with overlap
     ethr =  1.65E-07,  avg # of iterations =  3.1

     negative rho (up, down):  4.162E-07 0.000E+00

     total cpu time spent up to now is        9.5 secs

     total energy              =    -413.85443091 Ry
     estimated scf accuracy    <       0.00010069 Ry

     iteration # 10     ecut=    90.00 Ry     beta= 0.70
     Davidson diagonalization with overlap
     ethr =  1.05E-07,  avg # of iterations =  3.0

     negative rho (up, down):  4.170E-07 0.000E+00

     total cpu time spent up to now is       10.4 secs

     total energy              =    -413.85446496 Ry
     estimated scf accuracy    <       0.00000260 Ry

     iteration # 11     ecut=    90.00 Ry     beta= 0.70
     Davidson diagonalization with overlap
     ethr =  2.70E-09,  avg # of iterations =  3.0

     negative rho (up, down):  4.170E-07 0.000E+00

     total cpu time spent up to now is       11.3 secs

     total energy              =    -413.85446574 Ry
     estimated scf accuracy    <       0.00000029 Ry

     iteration # 12     ecut=    90.00 Ry     beta= 0.70
     Davidson diagonalization with overlap
     ethr =  2.97E-10,  avg # of iterations =  4.0

     negative rho (up, down):  4.170E-07 0.000E+00

     total cpu time spent up to now is       12.3 secs

     End of self-consistent calculation

          k = 0.0000 0.0000 0.0000 ( 28733 PWs)   bands (ev):

   -20.8667 -20.3762 -20.3762 -20.1392 -20.1392 -20.1121 -20.1121 -20.0923
   -20.0914 -19.7686 -19.7686 -19.4353  -8.1774  -7.9706  -7.9135  -7.9135
    -7.8183  -7.8183  -7.3973  -7.2398  -7.2398  -7.0195  -7.0195  -6.8785
    -6.8147  -5.8759  -5.8759  -5.2652  -5.2652  -5.1899  -5.1899  -4.8797
    -4.6830  -4.0270  -4.0270  -3.3529  -2.6863  -2.6863  -2.5810  -2.5006
    -2.4490  -2.4490  -2.3051  -2.3051  -2.2787  -2.2585  -2.2079  -2.2079

          k =-0.1498-0.0865 0.3111 ( 28697 PWs)   bands (ev):

   -20.7879 -20.4194 -20.3632 -20.2931 -20.2687 -20.1894 -20.0358 -19.9904
   -19.9319 -19.7759 -19.7312 -19.4993  -8.1199  -8.0382  -7.9586  -7.9085
    -7.8013  -7.7375  -7.3978  -7.2113  -7.1937  -7.0552  -6.9196  -6.8833
    -6.6685  -6.0280  -5.8908  -5.6141  -5.2829  -5.1360  -4.9959  -4.7624
    -4.7059  -4.0168  -3.9545  -3.4872  -2.8112  -2.7344  -2.6080  -2.5477
    -2.4881  -2.4493  -2.4060  -2.3412  -2.2719  -2.2329  -2.1940  -2.1446

          k = 0.2996 0.1730-0.6221 ( 28724 PWs)   bands (ev):

   -20.5847 -20.5802 -20.4016 -20.3814 -20.2690 -20.2625 -19.9775 -19.9647
   -19.7850 -19.7791 -19.6661 -19.6425  -8.0932  -8.0340  -7.9479  -7.9238
    -7.8075  -7.7425  -7.3431  -7.2138  -7.1696  -7.0656  -6.8312  -6.8309
    -6.4113  -6.2669  -5.9454  -5.7858  -5.2812  -5.1973  -4.9887  -4.8278
    -4.2769  -4.1607  -3.8913  -3.6595  -2.9242  -2.7572  -2.6348  -2.6063
    -2.5293  -2.5057  -2.4123  -2.3486  -2.3314  -2.1928  -2.1800  -2.0970

          k =-0.1498 0.0865 0.6221 ( 28691 PWs)   bands (ev):

   -20.6276 -20.4820 -20.4704 -20.3432 -20.3203 -20.2508 -19.9826 -19.8959
   -19.8583 -19.7333 -19.7139 -19.6159  -8.1016  -8.0108  -7.9914  -7.8815
    -7.8247  -7.7270  -7.3472  -7.2548  -7.1989  -6.9545  -6.8835  -6.8265
    -6.4171  -6.1964  -6.0939  -5.6088  -5.4286  -5.2403  -4.9111  -4.6989
    -4.4914  -3.9826  -3.9547  -3.6759  -2.8996  -2.8034  -2.6231  -2.5733
    -2.5380  -2.4867  -2.4399  -2.3518  -2.3190  -2.2025  -2.1845  -2.0905

          k = 0.2996 0.3460-0.3111 ( 28708 PWs)   bands (ev):

   -20.6846 -20.5176 -20.3998 -20.3791 -20.2870 -20.2156 -19.9855 -19.8787
   -19.8679 -19.7723 -19.7081 -19.5891  -8.1101  -8.0829  -7.9255  -7.9017
    -7.8386  -7.7389  -7.3844  -7.3198  -7.1880  -6.9207  -6.8890  -6.8135
    -6.5490  -6.2308  -5.9836  -5.6332  -5.5887  -5.0649  -4.8773  -4.6084
    -4.3745  -4.1430  -3.9370  -3.6473  -2.8034  -2.7309  -2.6404  -2.5667
    -2.5095  -2.4542  -2.3920  -2.3807  -2.2913  -2.2504  -2.1866  -2.0767

          k = 0.1498 0.2595 0.0000 ( 28719 PWs)   bands (ev):

   -20.8099 -20.4574 -20.3974 -20.2569 -20.2276 -20.1409 -20.0582 -19.9809
   -19.9387 -19.7809 -19.7422 -19.4862  -8.1604  -8.0522  -7.9491  -7.9004
    -7.7768  -7.7701  -7.4600  -7.3104  -7.1146  -7.0226  -6.9494  -6.8297
    -6.8106  -6.0078  -5.8701  -5.6076  -5.4932  -5.0102  -4.8708  -4.7464
    -4.5544  -4.0981  -4.0060  -3.4433  -2.6883  -2.6659  -2.6209  -2.5317
    -2.4901  -2.4616  -2.3379  -2.3221  -2.2855  -2.2759  -2.1663  -2.1508

          k = 0.2996-0.1730-1.2442 ( 28742 PWs)   bands (ev):

   -20.6734 -20.6325 -20.4143 -20.3089 -20.2281 -20.1642 -20.0001 -19.9605
   -19.8417 -19.8174 -19.6266 -19.6088  -8.1394  -8.0984  -7.9580  -7.9217
    -7.7522  -7.7445  -7.4604  -7.3848  -7.0997  -7.0474  -6.8582  -6.8101
    -6.4727  -6.4311  -5.9449  -5.7222  -5.3984  -5.1330  -4.7395  -4.4833
    -4.3703  -4.3124  -3.8516  -3.6592  -2.7066  -2.6524  -2.6323  -2.5683
    -2.4932  -2.4279  -2.4098  -2.3308  -2.3215  -2.2709  -2.1289  -2.1151

          k = 0.0000 0.0000 0.9332 ( 28725 PWs)   bands (ev):

   -20.5701 -20.5701 -20.4855 -20.4352 -20.2449 -20.2449 -19.9057 -19.9057
   -19.7788 -19.7322 -19.7064 -19.7064  -8.0843  -8.0843  -7.9407  -7.8368
    -7.8368  -7.8319  -7.3936  -7.2866  -7.2866  -6.8234  -6.8234  -6.7831
    -6.3362  -6.3362  -6.3347  -5.6581  -5.3357  -5.3357  -4.6568  -4.4697
    -4.4697  -4.0042  -4.0042  -3.8360  -2.7429  -2.7429  -2.6153  -2.5479
    -2.4804  -2.4804  -2.4189  -2.3540  -2.3540  -2.2352  -2.2352  -2.0514

          k = 0.4494 0.2595 0.0000 ( 28724 PWs)   bands (ev):

   -20.7046 -20.5275 -20.5199 -20.3104 -20.1696 -20.1561 -20.0153 -20.0069
   -19.8424 -19.7414 -19.7047 -19.5777  -8.1326  -8.0880  -8.0159  -7.8558
    -7.7940  -7.7287  -7.4776  -7.3321  -7.1980  -6.9381  -6.8820  -6.8338
    -6.5839  -6.1919  -6.1120  -5.6740  -5.4084  -5.1292  -4.6665  -4.6268
    -4.4147  -4.1098  -3.9685  -3.6318  -2.6868  -2.6790  -2.6193  -2.5733
    -2.5083  -2.4456  -2.3740  -2.3498  -2.2941  -2.2467  -2.1838  -2.0954

          k = 0.2996 0.1730 0.3111 ( 28745 PWs)   bands (ev):

   -20.7347 -20.4685 -20.3729 -20.3611 -20.2674 -20.2057 -20.0009 -19.9712
   -19.8931 -19.7644 -19.7059 -19.5396  -8.1305  -8.0704  -7.9841  -7.8505
    -7.8422  -7.6843  -7.4218  -7.2847  -7.0979  -7.0211  -6.9712  -6.8672
    -6.5776  -6.0303  -5.8506  -5.7652  -5.5334  -5.1647  -4.8602  -4.6529
    -4.4970  -4.0819  -3.9477  -3.5291  -2.8227  -2.7452  -2.6640  -2.6089
    -2.5050  -2.4621  -2.3818  -2.3466  -2.2582  -2.2164  -2.1542  -2.1377

          k = 0.4494-0.2595-0.9332 ( 28731 PWs)   bands (ev):

   -20.5970 -20.5927 -20.4476 -20.3855 -20.2542 -20.1743 -20.0424 -19.9540
   -19.8010 -19.7449 -19.6898 -19.6012  -8.1599  -8.0568  -8.0148  -7.8563
    -7.8077  -7.6649  -7.4707  -7.2442  -7.1178  -7.0598  -6.9054  -6.8728
    -6.3020  -6.2632  -5.9287  -5.7793  -5.5853  -5.2567  -4.8155  -4.5274
    -4.2207  -4.1733  -3.9890  -3.6021  -2.8200  -2.7663  -2.7269  -2.6095
    -2.5723  -2.4792  -2.3283  -2.3053  -2.2710  -2.2298  -2.1564  -2.1001

          k = 0.2996-0.3460-0.6221 ( 28736 PWs)   bands (ev):

   -20.5493 -20.5398 -20.4348 -20.4214 -20.2889 -20.2862 -19.9588 -19.9498
   -19.7890 -19.7799 -19.6604 -19.6350  -8.1737  -7.9676  -7.9368  -7.9163
    -7.8789  -7.6680  -7.3757  -7.2551  -7.0925  -7.0458  -6.8819  -6.8765
    -6.2655  -6.1355  -5.9658  -5.8383  -5.5036  -5.4668  -4.7309  -4.6574
    -4.2270  -4.1843  -3.9927  -3.5852  -2.9557  -2.7821  -2.7239  -2.6510
    -2.5920  -2.4471  -2.3760  -2.3343  -2.3093  -2.1820  -2.1636  -2.0806

          k = 0.0000 0.0000-1.8663 ( 28770 PWs)   bands (ev):

   -20.5145 -20.4897 -20.3961 -20.3961 -20.3947 -20.3947 -19.8803 -19.8803
   -19.8401 -19.8401 -19.6440 -19.6220  -8.2235  -7.9276  -7.9276  -7.9080
    -7.9080  -7.6370  -7.4275  -7.2540  -6.9928  -6.9928  -6.9617  -6.9617
    -6.0807  -5.9053  -5.8390  -5.8390  -5.8357  -5.8357  -4.5028  -4.5028
    -4.2690  -4.2690  -4.0065  -3.5340  -2.9882  -2.7857  -2.7857  -2.6914
    -2.6914  -2.3890  -2.3721  -2.2661  -2.2661  -2.1960  -2.1960  -2.0541

          k = 0.2996-0.3460 0.3111 ( 28708 PWs)   bands (ev):

   -20.6846 -20.5159 -20.4103 -20.3717 -20.2837 -20.2163 -19.9872 -19.8946
   -19.8437 -19.7864 -19.6997 -19.5912  -8.1258  -8.0489  -7.9631  -7.8950
    -7.8124  -7.7453  -7.4345  -7.2866  -7.1632  -6.9608  -6.8510  -6.8351
    -6.5402  -6.1610  -6.0827  -5.6819  -5.4423  -5.1303  -4.9596  -4.5141
    -4.3500  -4.1318  -4.0114  -3.6234  -2.8121  -2.7004  -2.6569  -2.5636
    -2.5167  -2.4595  -2.3939  -2.3799  -2.3096  -2.2178  -2.1873  -2.0855

     highest occupied level (ev):    -2.0514

!    total energy              =    -413.85446584 Ry
     estimated scf accuracy    <          4.1E-09 Ry

     The total energy is the sum of the following terms:
     one-electron contribution =    -287.37377040 Ry
     hartree contribution      =     178.63522872 Ry
     xc contribution           =    -101.53552805 Ry
     ewald contribution        =    -203.58039612 Ry

     convergence has been achieved in  12 iterations

     Forces acting on atoms (cartesian axes, Ry/au):

     atom    1 type  2   force =    -0.02874971    0.04816585    0.02002914
     atom    2 type  2   force =     0.02874971   -0.04816585   -0.02002914
     atom    3 type  2   force =    -0.02733799   -0.04898090    0.02002914
     atom    4 type  2   force =     0.02733799    0.04898090   -0.02002914
     atom    5 type  2   force =     0.05608770    0.00081505    0.02002914
     atom    6 type  2   force =    -0.05608770   -0.00081505   -0.02002914
     atom    7 type  2   force =    -0.01811224    0.01526462   -0.01344531
     atom    8 type  2   force =     0.01811224   -0.01526462    0.01344531
     atom    9 type  2   force =    -0.00416343   -0.02331797   -0.01344531
     atom   10 type  2   force =     0.00416343    0.02331797    0.01344531
     atom   11 type  2   force =     0.02227566    0.00805335   -0.01344531
     atom   12 type  2   force =    -0.02227566   -0.00805335    0.01344531
     atom   13 type  1   force =    -0.00269627   -0.01348947   -0.05643012
     atom   14 type  1   force =     0.00269627    0.01348947    0.05643012
     atom   15 type  1   force =     0.01303036    0.00440970   -0.05643012
     atom   16 type  1   force =    -0.01303036   -0.00440970    0.05643012
     atom   17 type  1   force =    -0.01033409    0.00907977   -0.05643012
     atom   18 type  1   force =     0.01033409   -0.00907977    0.05643012
     atom   19 type  1   force =     0.03044022   -0.04188994    0.02544564
     atom   20 type  1   force =    -0.03044022    0.04188994   -0.02544564
     atom   21 type  1   force =     0.02105765    0.04730697    0.02544564
     atom   22 type  1   force =    -0.02105765   -0.04730697   -0.02544564
     atom   23 type  1   force =    -0.05149786   -0.00541703    0.02544564
     atom   24 type  1   force =     0.05149786    0.00541703   -0.02544564
     atom   25 type  1   force =    -0.00941575    0.01250827    0.01182629
     atom   26 type  1   force =     0.00941575   -0.01250827   -0.01182629
     atom   27 type  1   force =    -0.00612460   -0.01440842    0.01182629
     atom   28 type  1   force =     0.00612460    0.01440842   -0.01182629
     atom   29 type  1   force =     0.01554036    0.00190015    0.01182629
     atom   30 type  1   force =    -0.01554036   -0.00190015   -0.01182629
     atom   31 type  1   force =    -0.01879121   -0.01788553    0.00849211
     atom   32 type  1   force =     0.01879121    0.01788553   -0.00849211
     atom   33 type  1   force =     0.02488493   -0.00733090    0.00849211
     atom   34 type  1   force =    -0.02488493    0.00733090   -0.00849211
     atom   35 type  1   force =    -0.00609372    0.02521643    0.00849211
     atom   36 type  1   force =     0.00609372   -0.02521643   -0.00849211

     Total force =     0.269689     Total SCF correction =     0.000084


     Computing stress (Cartesian axis) and pressure

          total   stress  (Ry/bohr**3)                   (kbar)     P=        1.31
  -0.00006716  -0.00000000   0.00000000           -9.88       -0.00        0.00
   0.00000000  -0.00006716  -0.00000000            0.00       -9.88       -0.00
   0.00000000  -0.00000000   0.00016108            0.00       -0.00       23.70


     Writing all to output data dir ./iceII/iceII.save/ :
     XML data file, charge density, pseudopotentials, collected wavefunctions

     init_run     :      0.91s CPU      0.96s WALL (       1 calls)
     electrons    :     10.91s CPU     11.14s WALL (       1 calls)
     forces       :      0.13s CPU      0.14s WALL (       1 calls)
     stress       :      0.84s CPU      0.85s WALL (       1 calls)

     Called by init_run:
     wfcinit      :      0.33s CPU      0.35s WALL (       1 calls)
     potinit      :      0.04s CPU      0.05s WALL (       1 calls)
     hinit0       :      0.39s CPU      0.39s WALL (       1 calls)

     Called by electrons:
     c_bands      :      9.20s CPU      9.33s WALL (      12 calls)
     sum_band     :      1.25s CPU      1.27s WALL (      12 calls)
     v_of_rho     :      0.29s CPU      0.32s WALL (      13 calls)
     newd         :      0.09s CPU      0.09s WALL (      13 calls)
     mix_rho      :      0.04s CPU      0.04s WALL (      12 calls)

     Called by c_bands:
     init_us_2    :      0.14s CPU      0.15s WALL (     108 calls)
     cegterg      :      8.94s CPU      9.04s WALL (      48 calls)

     Called by *egterg:
     cdiaghg      :      0.76s CPU      0.76s WALL (     197 calls)
     h_psi        :      6.91s CPU      6.99s WALL (     201 calls)
     s_psi        :      0.29s CPU      0.29s WALL (     201 calls)
     g_psi        :      0.02s CPU      0.02s WALL (     149 calls)

     Called by h_psi:
     h_psi:calbec :      0.50s CPU      0.51s WALL (     201 calls)
     vloc_psi     :      6.05s CPU      6.12s WALL (     201 calls)
     add_vuspsi   :      0.30s CPU      0.30s WALL (     201 calls)

     General routines
     calbec       :      0.67s CPU      0.68s WALL (     269 calls)
     fft          :      0.57s CPU      0.60s WALL (     151 calls)
     ffts         :      0.02s CPU      0.02s WALL (      12 calls)
     fftw         :      6.28s CPU      6.34s WALL (   17472 calls)

     Parallel routines

     PWSCF        :     13.07s CPU     13.70s WALL


   This run was terminated on:  19: 6:47  21Mar2026            

=------------------------------------------------------------------------------=
   JOB DONE.
=------------------------------------------------------------------------------=
