
     Program PWSCF v.7.3.1 starts on 24Mar2026 at 19:31:57 

     This program is part of the open-source Quantum ESPRESSO suite
     for quantum simulation of materials; please cite
         "P. Giannozzi et al., J. Phys.:Condens. Matter 21 395502 (2009);
         "P. Giannozzi et al., J. Phys.:Condens. Matter 29 465901 (2017);
         "P. Giannozzi et al., J. Chem. Phys. 152 154105 (2020);
          URL http://www.quantum-espresso.org", 
     in publications or presentations arising from this work. More details at
     http://www.quantum-espresso.org/quote

     Parallel version (MPI), running on   128 processors

     MPI processes distributed on     1 nodes
     243742 MiB available memory on the printing compute node when the environment starts

     Waiting for input...
     Reading input from standard input

     Current dimensions of program PWSCF are:
     Max number of different atomic species (ntypx) = 10
     Max number of k-points (npk) =  40000
     Max angular momentum in pseudopotentials (lmaxx) =  4

     K-points division:     npool     =       4
     R & G space division:  proc/nbgrp/npool/nimage =      32
     Subspace diagonalization in iterative solution of the eigenvalue problem:
     a serial algorithm will be used


     Parallelization info
     --------------------
     sticks:   dense  smooth     PW     G-vecs:    dense   smooth      PW
     Min         174     174     51                 7184     7184    1144
     Max         175     175     52                 7186     7186    1146
     Sum        5581    5581   1637               229901   229901   36649

     Using Slab Decomposition



     bravais-lattice index     =            5
     lattice parameter (alat)  =      14.5550  a.u.
     unit-cell volume          =    1992.2016 (a.u.)^3
     number of atoms/cell      =           36
     number of atomic types    =            2
     number of electrons       =        96.00
     number of Kohn-Sham states=           48
     kinetic-energy cutoff     =      90.0000  Ry
     charge density cutoff     =     360.0000  Ry
     scf convergence threshold =      1.0E-07
     mixing beta               =       0.7000
     number of iterations used =            8  plain     mixing
     Exchange-correlation=  SLA  PW   PBE  PBE
                           (   1   4   3   4   0   0   0)

     celldm(1)=  14.555048  celldm(2)=   0.000000  celldm(3)=   0.000000
     celldm(4)=  -0.392337  celldm(5)=   0.000000  celldm(6)=   0.000000

     crystal axes: (cart. coord. in units of alat)
               a(1) = (   0.834367  -0.481722   0.267909 )  
               a(2) = (   0.000000   0.963444   0.267909 )  
               a(3) = (  -0.834367  -0.481722   0.267909 )  

     reciprocal axes: (cart. coord. in units 2 pi/alat)
               b(1) = (  0.599257 -0.345981  1.244203 )  
               b(2) = ( -0.000000  0.691962  1.244203 )  
               b(3) = ( -0.599257 -0.345981  1.244203 )  


     PseudoPot. # 1 for H  read from file:
     ./H.pbe-van_ak.UPF
     MD5 check sum: 077eb6d537518a38cb46c6de387227b7
     Pseudo is Ultrasoft, Zval =  1.0
     Generated by new atomic code, or converted to UPF format
     Using radial grid of  615 points,  1 beta functions with: 
                l(1) =   0
     Q(r) pseudized with  8 coefficients,  rinner =    0.800

     PseudoPot. # 2 for O  read from file:
     ./O.pbe-van_ak.UPF
     MD5 check sum: 78c19812648e8988a0fe644b0f25305e
     Pseudo is Ultrasoft, Zval =  6.0
     Generated by new atomic code, or converted to UPF format
     Using radial grid of  737 points,  4 beta functions with: 
                l(1) =   0
                l(2) =   0
                l(3) =   1
                l(4) =   1
     Q(r) pseudized with  8 coefficients,  rinner =    0.800   0.800   0.800


     atomic species   valence    mass     pseudopotential
     H                 1.00     1.00800     H ( 1.00)
     O                 6.00    16.00000     O ( 1.00)

      6 Sym. Ops., with inversion, found



   Cartesian axes

     site n.     atom                  positions (alat units)
         1        O      tau(   1) = (  -0.4910119  -0.5205722   0.3052394  )
         2        O      tau(   2) = (   0.4910119   0.5205722   0.4984877  )
         3        O      tau(   3) = (   0.6963347  -0.1649427   0.3052394  )
         4        O      tau(   4) = (  -0.6963347   0.1649427   0.4984877  )
         5        O      tau(   5) = (  -0.2053228   0.6855149   0.3052394  )
         6        O      tau(   6) = (   0.2053228  -0.6855149   0.4984877  )
         7        O      tau(   7) = (   0.1229870   0.3303028   0.4196306  )
         8        O      tau(   8) = (  -0.1229870  -0.3303028   0.3840965  )
         9        O      tau(   9) = (  -0.3475441  -0.0586415   0.4196306  )
        10        O      tau(  10) = (   0.3475441   0.0586415   0.3840965  )
        11        O      tau(  11) = (   0.2245571  -0.2716613   0.4196306  )
        12        O      tau(  12) = (  -0.2245571   0.2716612   0.3840965  )
        13        H      tau(  13) = (  -0.5446961  -0.4126715   0.2597134  )
        14        H      tau(  14) = (   0.5446961   0.4126715   0.5440137  )
        15        H      tau(  15) = (   0.6297321  -0.2653849   0.2597134  )
        16        H      tau(  16) = (  -0.6297321   0.2653849   0.5440137  )
        17        H      tau(  17) = (  -0.0850360   0.6780564   0.2597134  )
        18        H      tau(  18) = (   0.0850360  -0.6780564   0.5440137  )
        19        H      tau(  19) = (  -0.4726389  -0.4926041   0.4288765  )
        20        H      tau(  20) = (   0.4726389   0.4926042   0.3748506  )
        21        H      tau(  21) = (   0.6629272  -0.1630152   0.4288765  )
        22        H      tau(  22) = (  -0.6629272   0.1630152   0.3748506  )
        23        H      tau(  23) = (  -0.1902883   0.6556194   0.4288765  )
        24        H      tau(  24) = (   0.1902883  -0.6556194   0.3748506  )
        25        H      tau(  25) = (   0.2676988  -0.1507235   0.4151121  )
        26        H      tau(  26) = (  -0.2676988   0.1507234   0.3886151  )
        27        H      tau(  27) = (  -0.0033191   0.3071957   0.4151121  )
        28        H      tau(  28) = (   0.0033191  -0.3071957   0.3886151  )
        29        H      tau(  29) = (  -0.2643797  -0.1564722   0.4151121  )
        30        H      tau(  30) = (   0.2643797   0.1564723   0.3886151  )
        31        H      tau(  31) = (   0.3102941  -0.3416444   0.3555952  )
        32        H      tau(  32) = (  -0.3102941   0.3416444   0.4481319  )
        33        H      tau(  33) = (   0.1407257   0.4395448   0.3555952  )
        34        H      tau(  34) = (  -0.1407257  -0.4395448   0.4481319  )
        35        H      tau(  35) = (  -0.4510198  -0.0979003   0.3555952  )
        36        H      tau(  36) = (   0.4510198   0.0979003   0.4481319  )

     number of k points=    14
                       cart. coord. in units 2pi/alat
        k(    1) = (   0.0000000   0.0000000   0.0000000), wk =   0.0312500
        k(    2) = (  -0.1498141  -0.0864952   0.3110508), wk =   0.1875000
        k(    3) = (   0.2996283   0.1729905  -0.6221017), wk =   0.0937500
        k(    4) = (  -0.1498141   0.0864952   0.6221017), wk =   0.1875000
        k(    5) = (   0.2996283   0.3459809  -0.3110508), wk =   0.1875000
        k(    6) = (   0.1498141   0.2594857   0.0000000), wk =   0.1875000
        k(    7) = (   0.2996283  -0.1729905  -1.2442034), wk =   0.0937500
        k(    8) = (   0.0000000   0.0000000   0.9331525), wk =   0.0625000
        k(    9) = (   0.4494424   0.2594857   0.0000000), wk =   0.1875000
        k(   10) = (   0.2996283   0.1729905   0.3110508), wk =   0.1875000
        k(   11) = (   0.4494424  -0.2594857  -0.9331525), wk =   0.1875000
        k(   12) = (   0.2996283  -0.3459809  -0.6221017), wk =   0.1875000
        k(   13) = (   0.0000000   0.0000000  -1.8663050), wk =   0.0312500
        k(   14) = (   0.2996283  -0.3459809   0.3110508), wk =   0.1875000

     Dense  grid:   229901 G-vectors     FFT dimensions: (  90,  90,  90)

     Estimated max dynamical RAM per process >      15.12 MB

     Estimated total dynamical RAM >       1.73 GB

     Initial potential from superposition of free atoms

     starting charge      95.9998, renormalised to      96.0000
     Starting wfcs are   72 randomized atomic wfcs

     total cpu time spent up to now is       14.8 secs

     per-process dynamical memory:    19.3 Mb

     Self-consistent Calculation

     iteration #  1     ecut=    90.00 Ry     beta= 0.70
     Davidson diagonalization with overlap
     ethr =  1.00E-02,  avg # of iterations =  2.0

     total cpu time spent up to now is       15.7 secs

     total energy              =    -412.33189941 Ry
     estimated scf accuracy    <       3.97141540 Ry

     iteration #  2     ecut=    90.00 Ry     beta= 0.70
     Davidson diagonalization with overlap
     ethr =  4.14E-03,  avg # of iterations =  3.0

     total cpu time spent up to now is       16.7 secs

     total energy              =    -413.59496097 Ry
     estimated scf accuracy    <       2.27721138 Ry

     iteration #  3     ecut=    90.00 Ry     beta= 0.70
     Davidson diagonalization with overlap
     ethr =  2.37E-03,  avg # of iterations =  2.0

     negative rho (up, down):  1.444E-07 0.000E+00

     total cpu time spent up to now is       17.5 secs

     total energy              =    -413.88641179 Ry
     estimated scf accuracy    <       0.09171116 Ry

     iteration #  4     ecut=    90.00 Ry     beta= 0.70
     Davidson diagonalization with overlap
     ethr =  9.55E-05,  avg # of iterations =  4.0

     negative rho (up, down):  2.751E-07 0.000E+00

     total cpu time spent up to now is       18.6 secs

     total energy              =    -413.95705418 Ry
     estimated scf accuracy    <       0.11276691 Ry

     iteration #  5     ecut=    90.00 Ry     beta= 0.70
     Davidson diagonalization with overlap
     ethr =  9.55E-05,  avg # of iterations =  2.0

     negative rho (up, down):  3.240E-07 0.000E+00

     total cpu time spent up to now is       19.4 secs

     total energy              =    -413.96151894 Ry
     estimated scf accuracy    <       0.01632717 Ry

     iteration #  6     ecut=    90.00 Ry     beta= 0.70
     Davidson diagonalization with overlap
     ethr =  1.70E-05,  avg # of iterations =  2.0

     negative rho (up, down):  4.188E-07 0.000E+00

     total cpu time spent up to now is       20.1 secs

     total energy              =    -413.96083842 Ry
     estimated scf accuracy    <       0.00466101 Ry

     iteration #  7     ecut=    90.00 Ry     beta= 0.70
     Davidson diagonalization with overlap
     ethr =  4.86E-06,  avg # of iterations =  2.1

     negative rho (up, down):  4.122E-07 0.000E+00

     total cpu time spent up to now is       21.0 secs

     total energy              =    -413.96321577 Ry
     estimated scf accuracy    <       0.00051005 Ry

     iteration #  8     ecut=    90.00 Ry     beta= 0.70
     Davidson diagonalization with overlap
     ethr =  5.31E-07,  avg # of iterations =  3.0

     negative rho (up, down):  3.899E-07 0.000E+00

     total cpu time spent up to now is       21.8 secs

     total energy              =    -413.96287118 Ry
     estimated scf accuracy    <       0.00136824 Ry

     iteration #  9     ecut=    90.00 Ry     beta= 0.70
     Davidson diagonalization with overlap
     ethr =  5.31E-07,  avg # of iterations =  2.0

     negative rho (up, down):  3.666E-07 0.000E+00

     total cpu time spent up to now is       22.6 secs

     total energy              =    -413.96279135 Ry
     estimated scf accuracy    <       0.00037338 Ry

     iteration # 10     ecut=    90.00 Ry     beta= 0.70
     Davidson diagonalization with overlap
     ethr =  3.89E-07,  avg # of iterations =  2.0

     negative rho (up, down):  3.624E-07 0.000E+00

     total cpu time spent up to now is       23.4 secs

     total energy              =    -413.96284882 Ry
     estimated scf accuracy    <       0.00001913 Ry

     iteration # 11     ecut=    90.00 Ry     beta= 0.70
     Davidson diagonalization with overlap
     ethr =  1.99E-08,  avg # of iterations =  4.0

     negative rho (up, down):  3.667E-07 0.000E+00

     total cpu time spent up to now is       24.4 secs

     total energy              =    -413.96285786 Ry
     estimated scf accuracy    <       0.00000081 Ry

     iteration # 12     ecut=    90.00 Ry     beta= 0.70
     Davidson diagonalization with overlap
     ethr =  8.43E-10,  avg # of iterations =  4.3

     negative rho (up, down):  3.639E-07 0.000E+00

     total cpu time spent up to now is       25.5 secs

     total energy              =    -413.96285718 Ry
     estimated scf accuracy    <       0.00000330 Ry

     iteration # 13     ecut=    90.00 Ry     beta= 0.70
     Davidson diagonalization with overlap
     ethr =  8.43E-10,  avg # of iterations =  3.0

     negative rho (up, down):  3.636E-07 0.000E+00

     total cpu time spent up to now is       26.5 secs

     total energy              =    -413.96285760 Ry
     estimated scf accuracy    <       0.00000011 Ry

     iteration # 14     ecut=    90.00 Ry     beta= 0.70
     Davidson diagonalization with overlap
     ethr =  1.15E-10,  avg # of iterations =  2.9

     negative rho (up, down):  3.638E-07 0.000E+00

     total cpu time spent up to now is       27.4 secs

     End of self-consistent calculation

          k = 0.0000 0.0000 0.0000 ( 28733 PWs)   bands (ev):

   -20.8430 -20.3625 -20.3625 -20.1353 -20.1353 -20.1220 -20.0784 -20.0784
   -20.0494 -19.7518 -19.7518 -19.4170  -8.3716  -8.2469  -8.2299  -8.2299
    -8.1436  -8.1436  -7.8252  -7.8252  -7.8127  -7.8127  -7.8097  -7.7553
    -6.6768  -5.5292  -5.5292  -4.9749  -4.9749  -4.7099  -4.7099  -4.6503
    -4.4175  -3.7590  -3.7590  -3.0138  -2.6817  -2.6817  -2.5891  -2.4825
    -2.4825  -2.4215  -2.3463  -2.3396  -2.3396  -2.2446  -2.2087  -2.2087

          k =-0.1498-0.0865 0.3111 ( 28697 PWs)   bands (ev):

   -20.7673 -20.3982 -20.3519 -20.2829 -20.2456 -20.1738 -20.0341 -19.9744
   -19.9118 -19.7611 -19.7174 -19.4773  -8.3353  -8.2733  -8.2401  -8.2175
    -8.1407  -8.0980  -7.8987  -7.8585  -7.8262  -7.7675  -7.7270  -7.7030
    -6.4831  -5.7034  -5.5560  -5.2603  -5.0760  -4.8140  -4.5318  -4.4516
    -4.2491  -3.7630  -3.6904  -3.1610  -2.7663  -2.7066  -2.6115  -2.5550
    -2.5327  -2.4673  -2.3955  -2.3319  -2.2967  -2.2642  -2.2105  -2.1971

          k = 0.2996 0.1730-0.6221 ( 28724 PWs)   bands (ev):

   -20.5854 -20.5531 -20.3785 -20.3461 -20.2667 -20.2354 -19.9843 -19.9403
   -19.8132 -19.7443 -19.6565 -19.6004  -8.2915  -8.2825  -8.2383  -8.2231
    -8.1496  -8.0758  -7.9010  -7.8754  -7.8340  -7.7794  -7.6606  -7.6446
    -6.1042  -5.9871  -5.5860  -5.5468  -5.0504  -5.0067  -4.3882  -4.3381
    -3.8819  -3.8523  -3.6620  -3.4093  -2.8389  -2.7282  -2.6286  -2.6256
    -2.5595  -2.4674  -2.4468  -2.3664  -2.3368  -2.2520  -2.1795  -2.1763

          k =-0.1498 0.0865 0.6221 ( 28691 PWs)   bands (ev):

   -20.6181 -20.4597 -20.4489 -20.3257 -20.2990 -20.2275 -19.9806 -19.8936
   -19.8474 -19.7243 -19.6997 -19.5796  -8.2919  -8.2681  -8.2556  -8.2314
    -8.1366  -8.0682  -7.8982  -7.8805  -7.8729  -7.7179  -7.6831  -7.6521
    -6.1434  -5.8463  -5.7991  -5.3441  -5.1899  -4.9879  -4.4171  -4.1658
    -4.0809  -3.7505  -3.6618  -3.4337  -2.8277  -2.7510  -2.6317  -2.5898
    -2.5302  -2.5096  -2.4559  -2.3482  -2.3368  -2.2608  -2.1994  -2.1556

          k = 0.2996 0.3460-0.3111 ( 28708 PWs)   bands (ev):

   -20.6634 -20.4918 -20.4190 -20.3456 -20.2600 -20.1865 -20.0002 -19.8965
   -19.8031 -19.7859 -19.6763 -19.5667  -8.3035  -8.2944  -8.2182  -8.2067
    -8.1452  -8.0860  -7.9720  -7.9432  -7.8773  -7.7192  -7.7049  -7.6530
    -6.1903  -5.8351  -5.6326  -5.3814  -5.3502  -4.7879  -4.3667  -4.2201
    -4.0979  -3.7960  -3.6619  -3.3635  -2.7593  -2.7039  -2.6421  -2.5719
    -2.5269  -2.4517  -2.4197  -2.3955  -2.3141  -2.3026  -2.1780  -2.1248

          k = 0.1498 0.2595 0.0000 ( 28719 PWs)   bands (ev):

   -20.7861 -20.4398 -20.3816 -20.2584 -20.2012 -20.1263 -20.0520 -19.9817
   -19.9078 -19.7612 -19.7221 -19.4683  -8.3480  -8.2707  -8.2339  -8.2054
    -8.1337  -8.1231  -7.9657  -7.9114  -7.8391  -7.7691  -7.7438  -7.7099
    -6.4893  -5.5933  -5.5289  -5.2850  -5.2444  -4.6466  -4.5110  -4.3704
    -4.2898  -3.7893  -3.7504  -3.1075  -2.6818  -2.6603  -2.6293  -2.5360
    -2.4902  -2.4526  -2.3850  -2.3659  -2.3192  -2.2720  -2.1715  -2.1562

          k = 0.2996-0.1730-1.2442 ( 28742 PWs)   bands (ev):

   -20.6448 -20.6162 -20.3957 -20.3134 -20.1961 -20.1593 -19.9786 -19.9779
   -19.8092 -19.7939 -19.6201 -19.5805  -8.3147  -8.2860  -8.2225  -8.2021
    -8.1102  -8.1097  -8.0518  -7.9729  -7.8626  -7.7613  -7.7275  -7.6773
    -6.0402  -6.0193  -5.5705  -5.4967  -5.1506  -4.7777  -4.3296  -4.2617
    -4.0605  -3.9115  -3.5609  -3.3626  -2.6865  -2.6519  -2.6284  -2.5719
    -2.5007  -2.4486  -2.4351  -2.3637  -2.3529  -2.2808  -2.1355  -2.1233

          k = 0.0000 0.0000 0.9332 ( 28725 PWs)   bands (ev):

   -20.5419 -20.5419 -20.4969 -20.4182 -20.2171 -20.2171 -19.9154 -19.9154
   -19.7784 -19.6922 -19.6922 -19.6684  -8.2912  -8.2912  -8.2363  -8.1869
    -8.1339  -8.1339  -8.0062  -7.9253  -7.9253  -7.6708  -7.6708  -7.6364
    -5.9222  -5.9222  -5.8472  -5.5485  -5.0924  -5.0924  -4.1224  -4.1224
    -3.9878  -3.7336  -3.7336  -3.6073  -2.7109  -2.7109  -2.6091  -2.5765
    -2.4986  -2.4986  -2.4287  -2.3749  -2.3749  -2.2448  -2.2448  -2.0975

          k = 0.4494 0.2595 0.0000 ( 28724 PWs)   bands (ev):

   -20.6804 -20.5050 -20.5013 -20.3140 -20.1589 -20.1288 -20.0248 -19.9875
   -19.8160 -19.7291 -19.6826 -19.5574  -8.3125  -8.2766  -8.2495  -8.1706
    -8.1460  -8.0793  -8.0694  -7.9468  -7.8994  -7.7411  -7.7091  -7.6970
    -6.1726  -5.7353  -5.6933  -5.5573  -5.1099  -4.7726  -4.3999  -4.2887
    -3.9742  -3.8085  -3.7050  -3.3241  -2.6708  -2.6542  -2.6395  -2.5667
    -2.5228  -2.4623  -2.4182  -2.3903  -2.3112  -2.2559  -2.1868  -2.1015

          k = 0.2996 0.1730 0.3111 ( 28745 PWs)   bands (ev):

   -20.7141 -20.4463 -20.3661 -20.3445 -20.2488 -20.1862 -20.0007 -19.9594
   -19.8676 -19.7578 -19.6870 -19.5163  -8.3173  -8.2782  -8.2441  -8.1816
    -8.1526  -8.0644  -7.9734  -7.8585  -7.8297  -7.8093  -7.7480  -7.6821
    -6.3169  -5.6963  -5.6333  -5.3085  -5.2582  -4.7948  -4.4476  -4.2918
    -4.2457  -3.7433  -3.6775  -3.2237  -2.7871  -2.6928  -2.6476  -2.6107
    -2.5446  -2.4623  -2.3968  -2.3730  -2.2982  -2.2663  -2.1881  -2.1395

          k = 0.4494-0.2595-0.9332 ( 28731 PWs)   bands (ev):

   -20.5767 -20.5721 -20.4275 -20.3768 -20.2413 -20.1552 -20.0368 -19.9330
   -19.7886 -19.7374 -19.6807 -19.5680  -8.2960  -8.2726  -8.2464  -8.1692
    -8.1373  -8.0426  -8.0176  -7.9215  -7.8498  -7.8091  -7.7342  -7.6923
    -6.0187  -5.8562  -5.6809  -5.4954  -5.2105  -4.7822  -4.5366  -4.2387
    -3.9693  -3.7310  -3.7003  -3.3331  -2.7877  -2.7101  -2.6735  -2.6170
    -2.5844  -2.4902  -2.3903  -2.3542  -2.3023  -2.2728  -2.1862  -2.0946

          k = 0.2996-0.3460-0.6221 ( 28736 PWs)   bands (ev):

   -20.5488 -20.5132 -20.4129 -20.4039 -20.2687 -20.2572 -19.9615 -19.9404
   -19.7807 -19.7587 -19.6753 -19.5821  -8.3005  -8.2463  -8.2223  -8.2069
    -8.1763  -8.0269  -7.9305  -7.9053  -7.8275  -7.7891  -7.6987  -7.6876
    -5.9663  -5.9330  -5.6297  -5.5710  -5.1085  -5.0663  -4.3418  -4.2679
    -3.9277  -3.8980  -3.5940  -3.3953  -2.8580  -2.7278  -2.6804  -2.6639
    -2.5807  -2.5038  -2.3819  -2.3580  -2.3428  -2.2460  -2.2246  -2.0956

          k = 0.0000 0.0000-1.8663 ( 28770 PWs)   bands (ev):

   -20.5046 -20.4636 -20.4103 -20.4103 -20.3429 -20.3429 -19.8802 -19.8802
   -19.8153 -19.8153 -19.6750 -19.5621  -8.3021  -8.2016  -8.2016  -8.1965
    -8.1965  -7.9992  -7.9593  -7.9256  -7.8012  -7.8012  -7.7456  -7.7456
    -5.9670  -5.8055  -5.4473  -5.4473  -5.3361  -5.3361  -4.1078  -4.1078
    -4.0599  -4.0599  -3.5381  -3.3744  -2.8409  -2.7200  -2.7200  -2.7065
    -2.7065  -2.4630  -2.3550  -2.2957  -2.2957  -2.2850  -2.2850  -2.0499

          k = 0.2996-0.3460 0.3111 ( 28708 PWs)   bands (ev):

   -20.6628 -20.4995 -20.3957 -20.3644 -20.2576 -20.1873 -19.9953 -19.8889
   -19.8481 -19.7345 -19.6954 -19.5655  -8.3129  -8.2762  -8.2326  -8.1873
    -8.1588  -8.0887  -7.9869  -7.9286  -7.8739  -7.7206  -7.6970  -7.6602
    -6.1944  -5.8148  -5.6802  -5.3512  -5.3072  -4.8499  -4.4454  -4.1144
    -4.0085  -3.8549  -3.7278  -3.3344  -2.7699  -2.6742  -2.6489  -2.5732
    -2.5305  -2.4584  -2.4192  -2.4012  -2.3439  -2.2615  -2.1830  -2.1269

     highest occupied level (ev):    -2.0499

!    total energy              =    -413.96285763 Ry
     estimated scf accuracy    <          8.5E-09 Ry

     The total energy is the sum of the following terms:
     one-electron contribution =    -286.84523586 Ry
     hartree contribution      =     178.39067234 Ry
     xc contribution           =    -101.78980448 Ry
     ewald contribution        =    -203.71848963 Ry

     convergence has been achieved in  14 iterations

     Forces acting on atoms (cartesian axes, Ry/au):

     atom    1 type  2   force =     0.00402134   -0.01559353   -0.00893374
     atom    2 type  2   force =    -0.00402134    0.01559353    0.00893374
     atom    3 type  2   force =     0.01149372    0.01127935   -0.00893374
     atom    4 type  2   force =    -0.01149372   -0.01127935    0.00893374
     atom    5 type  2   force =    -0.01551507    0.00431418   -0.00893374
     atom    6 type  2   force =     0.01551507   -0.00431418    0.00893374
     atom    7 type  2   force =     0.01276152   -0.00959430    0.00818669
     atom    8 type  2   force =    -0.01276152    0.00959430   -0.00818669
     atom    9 type  2   force =     0.00192815    0.01584895    0.00818669
     atom   10 type  2   force =    -0.00192815   -0.01584895   -0.00818669
     atom   11 type  2   force =    -0.01468967   -0.00625465    0.00818669
     atom   12 type  2   force =     0.01468967    0.00625465   -0.00818669
     atom   13 type  1   force =    -0.00630810    0.01251923   -0.00572220
     atom   14 type  1   force =     0.00630810   -0.01251923    0.00572220
     atom   15 type  1   force =    -0.00768793   -0.01172259   -0.00572220
     atom   16 type  1   force =     0.00768793    0.01172259    0.00572220
     atom   17 type  1   force =     0.01399602   -0.00079664   -0.00572220
     atom   18 type  1   force =    -0.01399602    0.00079664    0.00572220
     atom   19 type  1   force =     0.00349657    0.00247220    0.01585525
     atom   20 type  1   force =    -0.00349657   -0.00247220   -0.01585525
     atom   21 type  1   force =    -0.00388928    0.00179202    0.01585525
     atom   22 type  1   force =     0.00388928   -0.00179202   -0.01585525
     atom   23 type  1   force =     0.00039270   -0.00426422    0.01585525
     atom   24 type  1   force =    -0.00039270    0.00426422   -0.01585525
     atom   25 type  1   force =     0.00486935    0.01563592   -0.00012176
     atom   26 type  1   force =    -0.00486935   -0.01563592    0.00012176
     atom   27 type  1   force =    -0.01597578   -0.00360098   -0.00012176
     atom   28 type  1   force =     0.01597578    0.00360098    0.00012176
     atom   29 type  1   force =     0.01110643   -0.01203494   -0.00012176
     atom   30 type  1   force =    -0.01110643    0.01203494    0.00012176
     atom   31 type  1   force =     0.01000438   -0.00954163   -0.00797778
     atom   32 type  1   force =    -0.01000438    0.00954163    0.00797778
     atom   33 type  1   force =     0.00326110    0.01343486   -0.00797778
     atom   34 type  1   force =    -0.00326110   -0.01343486    0.00797778
     atom   35 type  1   force =    -0.01326548   -0.00389323   -0.00797778
     atom   36 type  1   force =     0.01326548    0.00389323    0.00797778

     Total force =     0.100490     Total SCF correction =     0.000149


     Computing stress (Cartesian axis) and pressure

          total   stress  (Ry/bohr**3)                   (kbar)     P=       16.83
   0.00010673   0.00000000   0.00000000           15.70        0.00        0.00
  -0.00000000   0.00010673   0.00000000           -0.00       15.70        0.00
  -0.00000000   0.00000000   0.00012982           -0.00        0.00       19.10


     Writing all to output data dir ./iceII/iceII.save/ :
     XML data file, charge density, pseudopotentials, collected wavefunctions

     init_run     :      0.91s CPU      4.90s WALL (       1 calls)
     electrons    :     12.38s CPU     12.68s WALL (       1 calls)
     forces       :      0.13s CPU      0.14s WALL (       1 calls)
     stress       :      0.83s CPU      0.85s WALL (       1 calls)

     Called by init_run:
     wfcinit      :      0.33s CPU      4.22s WALL (       1 calls)
     potinit      :      0.02s CPU      0.05s WALL (       1 calls)
     hinit0       :      0.39s CPU      0.45s WALL (       1 calls)

     Called by electrons:
     c_bands      :     10.34s CPU     10.48s WALL (      14 calls)
     sum_band     :      1.46s CPU      1.49s WALL (      14 calls)
     v_of_rho     :      0.32s CPU      0.37s WALL (      15 calls)
     newd         :      0.10s CPU      0.11s WALL (      15 calls)
     mix_rho      :      0.07s CPU      0.07s WALL (      14 calls)

     Called by c_bands:
     init_us_2    :      0.16s CPU      0.17s WALL (     124 calls)
     cegterg      :      9.94s CPU     10.03s WALL (      56 calls)

     Called by *egterg:
     cdiaghg      :      0.79s CPU      4.62s WALL (     210 calls)
     h_psi        :      7.78s CPU      7.90s WALL (     214 calls)
     s_psi        :      0.32s CPU      0.32s WALL (     214 calls)
     g_psi        :      0.02s CPU      0.02s WALL (     154 calls)

     Called by h_psi:
     h_psi:calbec :      0.54s CPU      0.58s WALL (     214 calls)
     vloc_psi     :      6.85s CPU      6.93s WALL (     214 calls)
     add_vuspsi   :      0.34s CPU      0.34s WALL (     214 calls)

     General routines
     calbec       :      0.73s CPU      0.77s WALL (     290 calls)
     fft          :      0.58s CPU      0.68s WALL (     173 calls)
     ffts         :      0.03s CPU      0.03s WALL (      14 calls)
     fftw         :      7.15s CPU      7.24s WALL (   19548 calls)

     Parallel routines

     PWSCF        :     17.46s CPU     28.80s WALL


   This run was terminated on:  19:32:25  24Mar2026            

=------------------------------------------------------------------------------=
   JOB DONE.
=------------------------------------------------------------------------------=
