
     Program PWSCF v.7.3.1 starts on 31Mar2026 at 18:27: 9 

     This program is part of the open-source Quantum ESPRESSO suite
     for quantum simulation of materials; please cite
         "P. Giannozzi et al., J. Phys.:Condens. Matter 21 395502 (2009);
         "P. Giannozzi et al., J. Phys.:Condens. Matter 29 465901 (2017);
         "P. Giannozzi et al., J. Chem. Phys. 152 154105 (2020);
          URL http://www.quantum-espresso.org", 
     in publications or presentations arising from this work. More details at
     http://www.quantum-espresso.org/quote

     Parallel version (MPI), running on   128 processors

     MPI processes distributed on     1 nodes
     499644 MiB available memory on the printing compute node when the environment starts

     Waiting for input...
     Reading input from standard input

     Current dimensions of program PWSCF are:
     Max number of different atomic species (ntypx) = 10
     Max number of k-points (npk) =  40000
     Max angular momentum in pseudopotentials (lmaxx) =  4

     K-points division:     npool     =       4
     R & G space division:  proc/nbgrp/npool/nimage =      32
     Subspace diagonalization in iterative solution of the eigenvalue problem:
     a serial algorithm will be used


     Parallelization info
     --------------------
     sticks:   dense  smooth     PW     G-vecs:    dense   smooth      PW
     Min         174     174     51                 7203     7203    1148
     Max         175     175     52                 7206     7206    1149
     Sum        5585    5585   1641               230537   230537   36739

     Using Slab Decomposition



     bravais-lattice index     =            5
     lattice parameter (alat)  =      14.5697  a.u.
     unit-cell volume          =    1998.2447 (a.u.)^3
     number of atoms/cell      =           36
     number of atomic types    =            2
     number of electrons       =        96.00
     number of Kohn-Sham states=           48
     kinetic-energy cutoff     =      90.0000  Ry
     charge density cutoff     =     360.0000  Ry
     scf convergence threshold =      1.0E-07
     mixing beta               =       0.7000
     number of iterations used =            8  plain     mixing
     energy convergence thresh.=      1.0E-04
     force convergence thresh. =      1.0E-04
     Exchange-correlation=  SLA  PW   PBE  PBE
                           (   1   4   3   4   0   0   0)
     nstep                     =           50


     celldm(1)=  14.569750  celldm(2)=   0.000000  celldm(3)=   0.000000
     celldm(4)=  -0.392337  celldm(5)=   0.000000  celldm(6)=   0.000000

     crystal axes: (cart. coord. in units of alat)
               a(1) = (   0.834367  -0.481722   0.267909 )  
               a(2) = (   0.000000   0.963444   0.267909 )  
               a(3) = (  -0.834367  -0.481722   0.267909 )  

     reciprocal axes: (cart. coord. in units 2 pi/alat)
               b(1) = (  0.599257 -0.345981  1.244203 )  
               b(2) = (  0.000000  0.691962  1.244203 )  
               b(3) = ( -0.599257 -0.345981  1.244203 )  


     PseudoPot. # 1 for H  read from file:
     ./H.pbe-van_ak.UPF
     MD5 check sum: 077eb6d537518a38cb46c6de387227b7
     Pseudo is Ultrasoft, Zval =  1.0
     Generated by new atomic code, or converted to UPF format
     Using radial grid of  615 points,  1 beta functions with: 
                l(1) =   0
     Q(r) pseudized with  8 coefficients,  rinner =    0.800

     PseudoPot. # 2 for O  read from file:
     ./O.pbe-van_ak.UPF
     MD5 check sum: 78c19812648e8988a0fe644b0f25305e
     Pseudo is Ultrasoft, Zval =  6.0
     Generated by new atomic code, or converted to UPF format
     Using radial grid of  737 points,  4 beta functions with: 
                l(1) =   0
                l(2) =   0
                l(3) =   1
                l(4) =   1
     Q(r) pseudized with  8 coefficients,  rinner =    0.800   0.800   0.800


     atomic species   valence    mass     pseudopotential
     H                 1.00     1.00800     H ( 1.00)
     O                 6.00    16.00000     O ( 1.00)

      6 Sym. Ops., with inversion, found



   Cartesian axes

     site n.     atom                  positions (alat units)
         1        O      tau(   1) = (  -0.4847673  -0.5197781   0.3083633  )
         2        O      tau(   2) = (   0.4847673   0.5197782   0.4953638  )
         3        O      tau(   3) = (   0.6925247  -0.1599317   0.3083633  )
         4        O      tau(   4) = (  -0.6925248   0.1599317   0.4953638  )
         5        O      tau(   5) = (  -0.2077574   0.6797099   0.3083633  )
         6        O      tau(   6) = (   0.2077574  -0.6797099   0.4953638  )
         7        O      tau(   7) = (   0.1218176   0.3323883   0.4179381  )
         8        O      tau(   8) = (  -0.1218176  -0.3323883   0.3857890  )
         9        O      tau(   9) = (  -0.3487655  -0.0606970   0.4179381  )
        10        O      tau(  10) = (   0.3487655   0.0606970   0.3857890  )
        11        O      tau(  11) = (   0.2269479  -0.2716913   0.4179381  )
        12        O      tau(  12) = (  -0.2269479   0.2716912   0.3857890  )
        13        H      tau(  13) = (  -0.5381668  -0.4032014   0.2796970  )
        14        H      tau(  14) = (   0.5381668   0.4032014   0.5240301  )
        15        H      tau(  15) = (   0.6182661  -0.2644654   0.2796970  )
        16        H      tau(  16) = (  -0.6182661   0.2644654   0.5240301  )
        17        H      tau(  17) = (  -0.0800993   0.6676668   0.2796970  )
        18        H      tau(  18) = (   0.0800993  -0.6676668   0.5240301  )
        19        H      tau(  19) = (  -0.4872704  -0.4817221   0.4326731  )
        20        H      tau(  20) = (   0.4872704   0.4817221   0.3710540  )
        21        H      tau(  21) = (   0.6608188  -0.1811275   0.4326731  )
        22        H      tau(  22) = (  -0.6608188   0.1811275   0.3710540  )
        23        H      tau(  23) = (  -0.1735484   0.6628496   0.4326731  )
        24        H      tau(  24) = (   0.1735484  -0.6628496   0.3710540  )
        25        H      tau(  25) = (   0.2703349  -0.1502973   0.4058822  )
        26        H      tau(  26) = (  -0.2703350   0.1502973   0.3978449  )
        27        H      tau(  27) = (  -0.0050062   0.3092656   0.4058822  )
        28        H      tau(  28) = (   0.0050062  -0.3092656   0.3978449  )
        29        H      tau(  29) = (  -0.2653287  -0.1589683   0.4058822  )
        30        H      tau(  30) = (   0.2653287   0.1589683   0.3978449  )
        31        H      tau(  31) = (   0.3178939  -0.3347969   0.3493534  )
        32        H      tau(  32) = (  -0.3178939   0.3347969   0.4543737  )
        33        H      tau(  33) = (   0.1309957   0.4427026   0.3493534  )
        34        H      tau(  34) = (  -0.1309956  -0.4427026   0.4543737  )
        35        H      tau(  35) = (  -0.4488895  -0.1079057   0.3493534  )
        36        H      tau(  36) = (   0.4488895   0.1079057   0.4543737  )

     number of k points=    14
                       cart. coord. in units 2pi/alat
        k(    1) = (   0.0000000   0.0000000   0.0000000), wk =   0.0312500
        k(    2) = (  -0.1498141  -0.0864952   0.3110508), wk =   0.1875000
        k(    3) = (   0.2996283   0.1729905  -0.6221017), wk =   0.0937500
        k(    4) = (  -0.1498141   0.0864952   0.6221017), wk =   0.1875000
        k(    5) = (   0.2996283   0.3459809  -0.3110508), wk =   0.1875000
        k(    6) = (   0.1498141   0.2594857   0.0000000), wk =   0.1875000
        k(    7) = (   0.2996283  -0.1729905  -1.2442034), wk =   0.0937500
        k(    8) = (   0.0000000   0.0000000   0.9331525), wk =   0.0625000
        k(    9) = (   0.4494424   0.2594857   0.0000000), wk =   0.1875000
        k(   10) = (   0.2996283   0.1729905   0.3110508), wk =   0.1875000
        k(   11) = (   0.4494424  -0.2594857  -0.9331525), wk =   0.1875000
        k(   12) = (   0.2996283  -0.3459809  -0.6221017), wk =   0.1875000
        k(   13) = (   0.0000000   0.0000000  -1.8663050), wk =   0.0312500
        k(   14) = (   0.2996283  -0.3459809   0.3110508), wk =   0.1875000

     Dense  grid:   230537 G-vectors     FFT dimensions: (  90,  90,  90)

     Estimated max dynamical RAM per process >      15.16 MB

     Estimated total dynamical RAM >       1.73 GB

     Initial potential from superposition of free atoms

     starting charge      95.9998, renormalised to      96.0000
     Starting wfcs are   72 randomized atomic wfcs

     total cpu time spent up to now is        1.2 secs

     per-process dynamical memory:    19.4 Mb

     Self-consistent Calculation

     iteration #  1     ecut=    90.00 Ry     beta= 0.70
     Davidson diagonalization with overlap
     ethr =  1.00E-02,  avg # of iterations =  2.0

     total cpu time spent up to now is        2.0 secs

     total energy              =    -412.28661170 Ry
     estimated scf accuracy    <       3.77913420 Ry

     iteration #  2     ecut=    90.00 Ry     beta= 0.70
     Davidson diagonalization with overlap
     ethr =  3.94E-03,  avg # of iterations =  3.0

     total cpu time spent up to now is        3.0 secs

     total energy              =    -413.48664116 Ry
     estimated scf accuracy    <       2.27350850 Ry

     iteration #  3     ecut=    90.00 Ry     beta= 0.70
     Davidson diagonalization with overlap
     ethr =  2.37E-03,  avg # of iterations =  2.0

     total cpu time spent up to now is        3.8 secs

     total energy              =    -413.77568342 Ry
     estimated scf accuracy    <       0.09589664 Ry

     iteration #  4     ecut=    90.00 Ry     beta= 0.70
     Davidson diagonalization with overlap
     ethr =  9.99E-05,  avg # of iterations =  4.0

     negative rho (up, down):  1.238E-08 0.000E+00

     total cpu time spent up to now is        5.0 secs

     total energy              =    -413.85025532 Ry
     estimated scf accuracy    <       0.11327530 Ry

     iteration #  5     ecut=    90.00 Ry     beta= 0.70
     Davidson diagonalization with overlap
     ethr =  9.99E-05,  avg # of iterations =  2.0

     negative rho (up, down):  3.431E-08 0.000E+00

     total cpu time spent up to now is        5.7 secs

     total energy              =    -413.85367144 Ry
     estimated scf accuracy    <       0.01926428 Ry

     iteration #  6     ecut=    90.00 Ry     beta= 0.70
     Davidson diagonalization with overlap
     ethr =  2.01E-05,  avg # of iterations =  2.0

     negative rho (up, down):  5.417E-08 0.000E+00

     total cpu time spent up to now is        6.5 secs

     total energy              =    -413.85294563 Ry
     estimated scf accuracy    <       0.00675207 Ry

     iteration #  7     ecut=    90.00 Ry     beta= 0.70
     Davidson diagonalization with overlap
     ethr =  7.03E-06,  avg # of iterations =  3.0

     negative rho (up, down):  6.024E-08 0.000E+00

     total cpu time spent up to now is        7.3 secs

     total energy              =    -413.85446479 Ry
     estimated scf accuracy    <       0.00016423 Ry

     iteration #  8     ecut=    90.00 Ry     beta= 0.70
     Davidson diagonalization with overlap
     ethr =  1.71E-07,  avg # of iterations =  6.0

     negative rho (up, down):  5.760E-08 0.000E+00

     total cpu time spent up to now is        8.7 secs

     total energy              =    -413.85454788 Ry
     estimated scf accuracy    <       0.00095742 Ry

     iteration #  9     ecut=    90.00 Ry     beta= 0.70
     Davidson diagonalization with overlap
     ethr =  1.71E-07,  avg # of iterations =  3.2

     negative rho (up, down):  5.100E-08 0.000E+00

     total cpu time spent up to now is        9.7 secs

     total energy              =    -413.85459130 Ry
     estimated scf accuracy    <       0.00009673 Ry

     iteration # 10     ecut=    90.00 Ry     beta= 0.70
     Davidson diagonalization with overlap
     ethr =  1.01E-07,  avg # of iterations =  3.0

     negative rho (up, down):  5.189E-08 0.000E+00

     total cpu time spent up to now is       10.6 secs

     total energy              =    -413.85462385 Ry
     estimated scf accuracy    <       0.00000263 Ry

     iteration # 11     ecut=    90.00 Ry     beta= 0.70
     Davidson diagonalization with overlap
     ethr =  2.74E-09,  avg # of iterations =  3.0

     negative rho (up, down):  5.170E-08 0.000E+00

     total cpu time spent up to now is       11.6 secs

     total energy              =    -413.85462474 Ry
     estimated scf accuracy    <       0.00000011 Ry

     iteration # 12     ecut=    90.00 Ry     beta= 0.70
     Davidson diagonalization with overlap
     ethr =  1.19E-10,  avg # of iterations =  3.7

     negative rho (up, down):  5.181E-08 0.000E+00

     total cpu time spent up to now is       12.5 secs

     End of self-consistent calculation

          k = 0.0000 0.0000 0.0000 ( 28817 PWs)   bands (ev):

   -20.8669 -20.3794 -20.3794 -20.1436 -20.1436 -20.1164 -20.1164 -20.0971
   -20.0960 -19.7751 -19.7751 -19.4436  -8.1811  -7.9750  -7.9178  -7.9178
    -7.8237  -7.8237  -7.4027  -7.2457  -7.2457  -7.0257  -7.0257  -6.8855
    -6.8216  -5.8866  -5.8866  -5.2780  -5.2780  -5.2025  -5.2025  -4.8934
    -4.6975  -4.0427  -4.0427  -3.3696  -2.6994  -2.6994  -2.5946  -2.5143
    -2.4630  -2.4630  -2.3194  -2.3194  -2.2937  -2.2734  -2.2231  -2.2231

          k =-0.1498-0.0865 0.3111 ( 28780 PWs)   bands (ev):

   -20.7885 -20.4223 -20.3664 -20.2966 -20.2722 -20.1934 -20.0407 -19.9955
   -19.9373 -19.7823 -19.7378 -19.5072  -8.1239  -8.0424  -7.9630  -7.9132
    -7.8066  -7.7430  -7.4030  -7.2170  -7.1997  -7.0614  -6.9264  -6.8901
    -6.6764  -6.0382  -5.9017  -5.6256  -5.2953  -5.1492  -5.0091  -4.7765
    -4.7201  -4.0326  -3.9703  -3.5037  -2.8236  -2.7471  -2.6214  -2.5612
    -2.5019  -2.4634  -2.4202  -2.3555  -2.2867  -2.2477  -2.2091  -2.1599

          k = 0.2996 0.1730-0.6221 ( 28800 PWs)   bands (ev):

   -20.5864 -20.5821 -20.4045 -20.3846 -20.2726 -20.2662 -19.9826 -19.9701
   -19.7912 -19.7855 -19.6729 -19.6498  -8.0974  -8.0383  -7.9523  -7.9284
    -7.8127  -7.7479  -7.3483  -7.2196  -7.1756  -7.0717  -6.8385  -6.8382
    -6.4203  -6.2763  -5.9562  -5.7966  -5.2937  -5.2099  -5.0022  -4.8416
    -4.2925  -4.1757  -3.9073  -3.6758  -2.9360  -2.7698  -2.6480  -2.6196
    -2.5429  -2.5196  -2.4265  -2.3631  -2.3457  -2.2078  -2.1951  -2.1124

          k =-0.1498 0.0865 0.6221 ( 28777 PWs)   bands (ev):

   -20.6292 -20.4844 -20.4730 -20.3465 -20.3237 -20.2545 -19.9878 -19.9016
   -19.8642 -19.7399 -19.7206 -19.6232  -8.1057  -8.0151  -7.9958  -7.8862
    -7.8299  -7.7326  -7.3525  -7.2602  -7.2046  -6.9612  -6.8905  -6.8338
    -6.4261  -6.2061  -6.1040  -5.6204  -5.4407  -5.2529  -4.9247  -4.7131
    -4.5060  -3.9983  -3.9707  -3.6920  -2.9115  -2.8157  -2.6364  -2.5868
    -2.5517  -2.5005  -2.4540  -2.3662  -2.3335  -2.2175  -2.1996  -2.1060

          k = 0.2996 0.3460-0.3111 ( 28788 PWs)   bands (ev):

   -20.6858 -20.5198 -20.4029 -20.3819 -20.2907 -20.2195 -19.9908 -19.8844
   -19.8738 -19.7788 -19.7148 -19.5966  -8.1141  -8.0871  -7.9301  -7.9064
    -7.8435  -7.7442  -7.3893  -7.3250  -7.1937  -6.9276  -6.8959  -6.8208
    -6.5576  -6.2406  -5.9941  -5.6444  -5.6003  -5.0785  -4.8911  -4.6228
    -4.3895  -4.1584  -3.9529  -3.6636  -2.8160  -2.7437  -2.6536  -2.5801
    -2.5233  -2.4682  -2.4061  -2.3950  -2.3061  -2.2652  -2.2017  -2.0923

          k = 0.1498 0.2595 0.0000 ( 28791 PWs)   bands (ev):

   -20.8104 -20.4599 -20.4003 -20.2606 -20.2315 -20.1453 -20.0629 -19.9862
   -19.9441 -19.7873 -19.7489 -19.4942  -8.1642  -8.0563  -7.9535  -7.9051
    -7.7821  -7.7754  -7.4646  -7.3157  -7.1206  -7.0289  -6.9561  -6.8372
    -6.8176  -6.0184  -5.8811  -5.6190  -5.5048  -5.0237  -4.8848  -4.7603
    -4.5691  -4.1136  -4.0216  -3.4602  -2.7014  -2.6791  -2.6342  -2.5452
    -2.5038  -2.4754  -2.3524  -2.3366  -2.3002  -2.2907  -2.1816  -2.1662

          k = 0.2996-0.1730-1.2442 ( 28834 PWs)   bands (ev):

   -20.6747 -20.6340 -20.4170 -20.3125 -20.2319 -20.1686 -20.0051 -19.9659
   -19.8476 -19.8236 -19.6338 -19.6162  -8.1432  -8.1024  -7.9626  -7.9264
    -7.7574  -7.7499  -7.4647  -7.3896  -7.1056  -7.0536  -6.8651  -6.8173
    -6.4820  -6.4403  -5.9557  -5.7331  -5.4102  -5.1464  -4.7542  -4.4981
    -4.3855  -4.3269  -3.8676  -3.6757  -2.7195  -2.6657  -2.6458  -2.5816
    -2.5069  -2.4421  -2.4238  -2.3453  -2.3359  -2.2858  -2.1444  -2.1306

          k = 0.0000 0.0000 0.9332 ( 28839 PWs)   bands (ev):

   -20.5719 -20.5719 -20.4877 -20.4380 -20.2488 -20.2488 -19.9113 -19.9113
   -19.7849 -19.7390 -19.7131 -19.7131  -8.0885  -8.0885  -7.9455  -7.8418
    -7.8418  -7.8364  -7.3985  -7.2918  -7.2918  -6.8306  -6.8306  -6.7906
    -6.3455  -6.3455  -6.3442  -5.6694  -5.3482  -5.3482  -4.6713  -4.4844
    -4.4844  -4.0199  -4.0199  -3.8516  -2.7558  -2.7558  -2.6286  -2.5618
    -2.4942  -2.4942  -2.4331  -2.3684  -2.3684  -2.2500  -2.2500  -2.0672

          k = 0.4494 0.2595 0.0000 ( 28808 PWs)   bands (ev):

   -20.7056 -20.5295 -20.5221 -20.3140 -20.1738 -20.1605 -20.0203 -20.0121
   -19.8483 -19.7480 -19.7115 -19.5852  -8.1365  -8.0921  -8.0203  -7.8607
    -7.7991  -7.7339  -7.4819  -7.3371  -7.2034  -6.9447  -6.8890  -6.8408
    -6.5926  -6.2019  -6.1223  -5.6850  -5.4205  -5.1425  -4.6810  -4.6413
    -4.4299  -4.1253  -3.9841  -3.6483  -2.6999  -2.6921  -2.6330  -2.5865
    -2.5219  -2.4596  -2.3882  -2.3641  -2.3087  -2.2617  -2.1991  -2.1109

          k = 0.2996 0.1730 0.3111 ( 28821 PWs)   bands (ev):

   -20.7356 -20.4710 -20.3760 -20.3642 -20.2710 -20.2097 -20.0061 -19.9763
   -19.8989 -19.7708 -19.7127 -19.5473  -8.1344  -8.0745  -7.9885  -7.8554
    -7.8473  -7.6900  -7.4265  -7.2901  -7.1040  -7.0274  -6.9777  -6.8742
    -6.5860  -6.0408  -5.8617  -5.7763  -5.5448  -5.1778  -4.8742  -4.6675
    -4.5115  -4.0978  -3.9633  -3.5458  -2.8352  -2.7578  -2.6771  -2.6220
    -2.5187  -2.4759  -2.3961  -2.3611  -2.2731  -2.2314  -2.1695  -2.1530

          k = 0.4494-0.2595-0.9332 ( 28841 PWs)   bands (ev):

   -20.5986 -20.5945 -20.4501 -20.3887 -20.2579 -20.1783 -20.0473 -19.9593
   -19.8073 -19.7514 -19.6967 -19.6086  -8.1638  -8.0610  -8.0191  -7.8613
    -7.8128  -7.6706  -7.4752  -7.2495  -7.1237  -7.0658  -6.9122  -6.8799
    -6.3116  -6.2729  -5.9396  -5.7902  -5.5968  -5.2695  -4.8297  -4.5423
    -4.2358  -4.1893  -4.0047  -3.6184  -2.8327  -2.7788  -2.7395  -2.6226
    -2.5856  -2.4930  -2.3428  -2.3199  -2.2859  -2.2448  -2.1717  -2.1156

          k = 0.2996-0.3460-0.6221 ( 28824 PWs)   bands (ev):

   -20.5512 -20.5421 -20.4374 -20.4243 -20.2923 -20.2897 -19.9641 -19.9552
   -19.7953 -19.7863 -19.6673 -19.6423  -8.1776  -7.9721  -7.9413  -7.9210
    -7.8837  -7.6738  -7.3809  -7.2603  -7.0987  -7.0520  -6.8889  -6.8836
    -6.2752  -6.1454  -5.9764  -5.8490  -5.5154  -5.4787  -4.7453  -4.6719
    -4.2422  -4.1995  -4.0090  -3.6016  -2.9674  -2.7945  -2.7366  -2.6639
    -2.6053  -2.4611  -2.3903  -2.3488  -2.3240  -2.1971  -2.1788  -2.0961

          k = 0.0000 0.0000-1.8663 ( 28818 PWs)   bands (ev):

   -20.5167 -20.4925 -20.3987 -20.3987 -20.3976 -20.3976 -19.8859 -19.8859
   -19.8463 -19.8463 -19.6510 -19.6294  -8.2272  -7.9324  -7.9324  -7.9126
    -7.9126  -7.6427  -7.4325  -7.2591  -6.9994  -6.9994  -6.9682  -6.9682
    -6.0913  -5.9155  -5.8495  -5.8495  -5.8472  -5.8472  -4.5180  -4.5180
    -4.2838  -4.2838  -4.0231  -3.5505  -2.9998  -2.7980  -2.7980  -2.7040
    -2.7040  -2.4033  -2.3863  -2.2810  -2.2810  -2.2110  -2.2110  -2.0697

          k = 0.2996-0.3460 0.3111 ( 28788 PWs)   bands (ev):

   -20.6858 -20.5182 -20.4131 -20.3748 -20.2874 -20.2202 -19.9924 -19.9002
   -19.8499 -19.7926 -19.7065 -19.5986  -8.1298  -8.0532  -7.9677  -7.8999
    -7.8172  -7.7506  -7.4392  -7.2919  -7.1689  -6.9675  -6.8581  -6.8424
    -6.5489  -6.1710  -6.0927  -5.6934  -5.4540  -5.1435  -4.9732  -4.5289
    -4.3653  -4.1470  -4.0269  -3.6399  -2.8245  -2.7133  -2.6701  -2.5770
    -2.5303  -2.4735  -2.4080  -2.3943  -2.3243  -2.2327  -2.2024  -2.1011

     highest occupied level (ev):    -2.0672

!    total energy              =    -413.85462477 Ry
     estimated scf accuracy    <       0.00000002 Ry

     The total energy is the sum of the following terms:
     one-electron contribution =    -287.74100692 Ry
     hartree contribution      =     178.77005182 Ry
     xc contribution           =    -101.50870280 Ry
     ewald contribution        =    -203.37496686 Ry

     convergence has been achieved in  12 iterations

     Forces acting on atoms (cartesian axes, Ry/au):

     atom    1 type  2   force =    -0.02935293    0.04973581    0.02111711
     atom    2 type  2   force =     0.02935293   -0.04973581   -0.02111711
     atom    3 type  2   force =    -0.02839600   -0.05028829    0.02111711
     atom    4 type  2   force =     0.02839600    0.05028829   -0.02111711
     atom    5 type  2   force =     0.05774894    0.00055248    0.02111711
     atom    6 type  2   force =    -0.05774894   -0.00055248   -0.02111711
     atom    7 type  2   force =    -0.01944229    0.01611717   -0.01434359
     atom    8 type  2   force =     0.01944229   -0.01611717    0.01434359
     atom    9 type  2   force =    -0.00423673   -0.02489611   -0.01434359
     atom   10 type  2   force =     0.00423673    0.02489611    0.01434359
     atom   11 type  2   force =     0.02367902    0.00877894   -0.01434359
     atom   12 type  2   force =    -0.02367902   -0.00877894    0.01434359
     atom   13 type  1   force =    -0.00208536   -0.01477641   -0.05590269
     atom   14 type  1   force =     0.00208536    0.01477641    0.05590269
     atom   15 type  1   force =     0.01383943    0.00558223   -0.05590269
     atom   16 type  1   force =    -0.01383943   -0.00558223    0.05590269
     atom   17 type  1   force =    -0.01175407    0.00919418   -0.05590269
     atom   18 type  1   force =     0.01175407   -0.00919418    0.05590269
     atom   19 type  1   force =     0.03036270   -0.04218279    0.02386569
     atom   20 type  1   force =    -0.03036270    0.04218279   -0.02386569
     atom   21 type  1   force =     0.02135002    0.04738626    0.02386569
     atom   22 type  1   force =    -0.02135002   -0.04738626   -0.02386569
     atom   23 type  1   force =    -0.05171272   -0.00520347    0.02386569
     atom   24 type  1   force =     0.05171272    0.00520347   -0.02386569
     atom   25 type  1   force =    -0.00986043    0.01096811    0.01191226
     atom   26 type  1   force =     0.00986043   -0.01096811   -0.01191226
     atom   27 type  1   force =    -0.00456845   -0.01402344    0.01191226
     atom   28 type  1   force =     0.00456845    0.01402344   -0.01191226
     atom   29 type  1   force =     0.01442888    0.00305533    0.01191226
     atom   30 type  1   force =    -0.01442888   -0.00305533   -0.01191226
     atom   31 type  1   force =    -0.01981846   -0.01700619    0.00929408
     atom   32 type  1   force =     0.01981846    0.01700619   -0.00929408
     atom   33 type  1   force =     0.02463702   -0.00866019    0.00929408
     atom   34 type  1   force =    -0.02463702    0.00866019   -0.00929408
     atom   35 type  1   force =    -0.00481856    0.02566638    0.00929408
     atom   36 type  1   force =     0.00481856   -0.02566638   -0.00929408

     Total force =     0.272446     Total SCF correction =     0.000104


     Computing stress (Cartesian axis) and pressure

          total   stress  (Ry/bohr**3)                   (kbar)     P=       -1.01
  -0.00008313   0.00000000  -0.00000000          -12.23        0.00       -0.00
  -0.00000000  -0.00008313  -0.00000000           -0.00      -12.23       -0.00
  -0.00000000  -0.00000000   0.00014558           -0.00       -0.00       21.42


     BFGS Geometry Optimization
     Energy error            =      0.0E+00 Ry
     Gradient error          =      5.8E-02 Ry/Bohr

     number of scf cycles    =   1
     number of bfgs steps    =   0

     energy             new  =    -413.8546247653 Ry

     new trust radius        =       0.0614912787 bohr
     new conv_thr            =       0.0000001000 Ry


ATOMIC_POSITIONS (crystal)
O                0.2724149813        0.0281654289        0.8558295348
O                0.7275850187        0.9718345821        0.1441704352
O                0.8558295348        0.2724149813        0.0281654289
O                0.1441704352        0.7275850187        0.9718345821
O                0.0281654289        0.8558295348        0.2724149813
O                0.9718345821        0.1441704352        0.7275850187
O                0.4755927031        0.7495405636        0.3311920356
O                0.5244072969        0.2504594364        0.6688079344
O                0.3311920356        0.4755927031        0.7495405636
O                0.6688079344        0.5244072969        0.2504594364
O                0.7495405636        0.3311920356        0.4755927031
O                0.2504594364        0.6688079344        0.5244072969
H                0.1604912385        0.0635243356        0.8056627764
H                0.8395087475        0.9364756564        0.1943372236
H                0.8056627764        0.1604912385        0.0635243356
H                0.1943372236        0.8395087475        0.9364756564
H                0.0635243356        0.8056627764        0.1604912385
H                0.9364756564        0.1943372236        0.8395087475
H                0.4172885490        0.2050346512        0.9987908929
H                0.5827114510        0.7949653638        0.0012090861
H                0.9987908929        0.4172885490        0.2050346512
H                0.0012090861        0.5827114510        0.7949653638
H                0.2050346512        0.9987908929        0.4172885490
H                0.7949653638        0.0012090861        0.5827114510
H                0.7193512293        0.4025381655        0.3961623812
H                0.2806487707        0.5974618045        0.6038376488
H                0.3961623812        0.7193512293        0.4025381655
H                0.6038376488        0.2806487707        0.5974618045
H                0.4025381655        0.3961623812        0.7193512293
H                0.5974618045        0.6038376488        0.2806487707
H                0.7413823783        0.2029859985        0.3620126693
H                0.2586176217        0.7970139865        0.6379873307
H                0.3620126693        0.7413823783        0.2029859985
H                0.6379873307        0.2586176217        0.7970139865
H                0.2029859985        0.3620126693        0.7413823783
H                0.7970139865        0.6379873307        0.2586176217



     Writing config-only to output data dir ./iceII/iceII.save/ :
     XML data file
     NEW-OLD atomic charge density approx. for the potential

     negative rho (up, down):  3.190E-08 0.000E+00

     total cpu time spent up to now is       13.6 secs

     per-process dynamical memory:    25.1 Mb

     Self-consistent Calculation

     iteration #  1     ecut=    90.00 Ry     beta= 0.70
     Davidson diagonalization with overlap
     ethr =  1.00E-06,  avg # of iterations =  8.0

     negative rho (up, down):  9.501E-08 0.000E+00

     total cpu time spent up to now is       15.5 secs

     total energy              =    -413.90788208 Ry
     estimated scf accuracy    <       0.00764819 Ry

     iteration #  2     ecut=    90.00 Ry     beta= 0.70
     Davidson diagonalization with overlap
     ethr =  7.97E-06,  avg # of iterations =  3.0

     negative rho (up, down):  9.844E-08 0.000E+00

     total cpu time spent up to now is       16.4 secs

     total energy              =    -413.90968442 Ry
     estimated scf accuracy    <       0.00147304 Ry

     iteration #  3     ecut=    90.00 Ry     beta= 0.70
     Davidson diagonalization with overlap
     ethr =  1.53E-06,  avg # of iterations =  2.1

     negative rho (up, down):  1.009E-07 0.000E+00

     total cpu time spent up to now is       17.1 secs

     total energy              =    -413.90992463 Ry
     estimated scf accuracy    <       0.00004973 Ry

     iteration #  4     ecut=    90.00 Ry     beta= 0.70
     Davidson diagonalization with overlap
     ethr =  5.18E-08,  avg # of iterations =  3.0

     negative rho (up, down):  1.023E-07 0.000E+00

     total cpu time spent up to now is       18.1 secs

     total energy              =    -413.90993491 Ry
     estimated scf accuracy    <       0.00002227 Ry

     iteration #  5     ecut=    90.00 Ry     beta= 0.70
     Davidson diagonalization with overlap
     ethr =  2.32E-08,  avg # of iterations =  2.1

     negative rho (up, down):  1.022E-07 0.000E+00

     total cpu time spent up to now is       18.9 secs

     total energy              =    -413.90994118 Ry
     estimated scf accuracy    <       0.00000104 Ry

     iteration #  6     ecut=    90.00 Ry     beta= 0.70
     Davidson diagonalization with overlap
     ethr =  1.08E-09,  avg # of iterations =  3.0

     negative rho (up, down):  1.018E-07 0.000E+00

     total cpu time spent up to now is       19.8 secs

     total energy              =    -413.90994082 Ry
     estimated scf accuracy    <       0.00000114 Ry

     iteration #  7     ecut=    90.00 Ry     beta= 0.70
     Davidson diagonalization with overlap
     ethr =  1.08E-09,  avg # of iterations =  3.1

     negative rho (up, down):  1.018E-07 0.000E+00

     total cpu time spent up to now is       20.7 secs

     End of self-consistent calculation

          k = 0.0000 0.0000 0.0000 ( 28817 PWs)   bands (ev):

   -20.9421 -20.4647 -20.4647 -20.2347 -20.2347 -20.2047 -20.2047 -20.1933
   -20.1802 -19.8735 -19.8735 -19.5561  -8.3555  -8.1291  -8.1003  -8.1003
    -8.0375  -8.0375  -7.5339  -7.5339  -7.4913  -7.3910  -7.3910  -7.2158
    -6.9945  -5.7746  -5.7746  -5.1700  -5.1700  -5.1106  -5.1106  -4.7654
    -4.6750  -3.9935  -3.9935  -3.3110  -2.7314  -2.7314  -2.6459  -2.5120
    -2.4911  -2.4911  -2.3241  -2.3241  -2.3169  -2.3058  -2.2417  -2.2417

          k =-0.1498-0.0865 0.3111 ( 28780 PWs)   bands (ev):

   -20.8650 -20.5035 -20.4487 -20.3863 -20.3621 -20.2845 -20.1309 -20.0851
   -20.0286 -19.8833 -19.8399 -19.6171  -8.3032  -8.1975  -8.1322  -8.0915
    -8.0213  -7.9547  -7.5989  -7.5299  -7.4218  -7.3972  -7.3097  -7.2835
    -6.7419  -5.9435  -5.8022  -5.5257  -5.2740  -4.9880  -4.9271  -4.6755
    -4.6111  -3.9851  -3.9147  -3.4484  -2.8483  -2.7761  -2.6579  -2.5785
    -2.5330  -2.4849  -2.4480  -2.3624  -2.3065  -2.2544  -2.2306  -2.1796

          k = 0.2996 0.1730-0.6221 ( 28800 PWs)   bands (ev):

   -20.6649 -20.6631 -20.4827 -20.4694 -20.3616 -20.3609 -20.0667 -20.0631
   -19.8919 -19.8864 -19.7714 -19.7610  -8.2383  -8.2202  -8.1367  -8.1120
    -8.0160  -7.9458  -7.5799  -7.5122  -7.4356  -7.4309  -7.2461  -7.2355
    -6.3619  -6.2173  -5.8580  -5.7555  -5.2525  -5.1668  -4.8226  -4.6622
    -4.1957  -4.1146  -3.8553  -3.6398  -2.9514  -2.8006  -2.6822  -2.6273
    -2.5687  -2.5517  -2.4432  -2.3955  -2.3628  -2.2275  -2.1967  -2.1316

          k =-0.1498 0.0865 0.6221 ( 28777 PWs)   bands (ev):

   -20.7082 -20.5643 -20.5539 -20.4305 -20.4139 -20.3448 -20.0772 -19.9913
   -19.9618 -19.8442 -19.8232 -19.7298  -8.2488  -8.1888  -8.1843  -8.0729
    -8.0305  -7.9366  -7.5607  -7.5500  -7.4948  -7.3235  -7.2791  -7.2400
    -6.3834  -6.1130  -6.0388  -5.5662  -5.3728  -5.2009  -4.7620  -4.5578
    -4.3957  -3.9508  -3.9129  -3.6536  -2.9288  -2.8407  -2.6709  -2.6002
    -2.5828  -2.5189  -2.4820  -2.3848  -2.3601  -2.2360  -2.2031  -2.1237

          k = 0.2996 0.3460-0.3111 ( 28788 PWs)   bands (ev):

   -20.7641 -20.6005 -20.4908 -20.4658 -20.3735 -20.3064 -20.0860 -19.9836
   -19.9612 -19.8837 -19.8155 -19.7030  -8.2662  -8.2485  -8.1119  -8.0880
    -8.0403  -7.9353  -7.6677  -7.6223  -7.5007  -7.2890  -7.2688  -7.2120
    -6.4781  -6.1251  -5.8715  -5.5978  -5.5677  -5.0177  -4.6929  -4.5404
    -4.3311  -4.0800  -3.8939  -3.6104  -2.8415  -2.7761  -2.6864  -2.6137
    -2.5384  -2.4787  -2.4335  -2.4171  -2.3356  -2.2833  -2.2043  -2.1072

          k = 0.1498 0.2595 0.0000 ( 28791 PWs)   bands (ev):

   -20.8866 -20.5445 -20.4860 -20.3459 -20.3153 -20.2334 -20.1560 -20.0841
   -20.0366 -19.8856 -19.8478 -19.6044  -8.3330  -8.2012  -8.1310  -8.0882
    -7.9922  -7.9797  -7.7065  -7.6050  -7.4428  -7.3726  -7.3062  -7.2105
    -6.8037  -5.8847  -5.7686  -5.5512  -5.4375  -4.9359  -4.7767  -4.6397
    -4.5298  -4.0521  -3.9722  -3.3958  -2.7338  -2.7134  -2.6812  -2.5728
    -2.5140  -2.4912  -2.3690  -2.3491  -2.3374  -2.3054  -2.1936  -2.1796

          k = 0.2996-0.1730-1.2442 ( 28834 PWs)   bands (ev):

   -20.7522 -20.7159 -20.5032 -20.3954 -20.3172 -20.2539 -20.1003 -20.0634
   -19.9454 -19.9196 -19.7405 -19.7184  -8.2963  -8.2527  -8.1363  -8.1026
    -7.9594  -7.9423  -7.7760  -7.6740  -7.4610  -7.3697  -7.2460  -7.2049
    -6.3530  -6.3269  -5.8294  -5.7046  -5.3434  -5.0596  -4.6391  -4.4496
    -4.2818  -4.2721  -3.8010  -3.6117  -2.7532  -2.7014  -2.6852  -2.6182
    -2.5249  -2.4515  -2.4357  -2.3710  -2.3558  -2.3072  -2.1572  -2.1404

          k = 0.0000 0.0000 0.9332 ( 28839 PWs)   bands (ev):

   -20.6512 -20.6512 -20.5750 -20.5218 -20.3325 -20.3325 -20.0098 -20.0098
   -19.8707 -19.8458 -19.8170 -19.8170  -8.2446  -8.2446  -8.1470  -8.0270
    -8.0270  -8.0192  -7.6961  -7.5819  -7.5819  -7.2280  -7.2280  -7.1876
    -6.2304  -6.2304  -6.1694  -5.6697  -5.2954  -5.2954  -4.4701  -4.3899
    -4.3899  -3.9610  -3.9610  -3.8164  -2.7872  -2.7872  -2.6631  -2.6133
    -2.5060  -2.5060  -2.4480  -2.3948  -2.3948  -2.2564  -2.2564  -2.0814

          k = 0.4494 0.2595 0.0000 ( 28808 PWs)   bands (ev):

   -20.7838 -20.6109 -20.6067 -20.3975 -20.2568 -20.2488 -20.1131 -20.1106
   -19.9457 -19.8490 -19.8118 -19.6909  -8.2948  -8.2365  -8.1847  -8.0504
    -8.0017  -7.9218  -7.7893  -7.6267  -7.5324  -7.2988  -7.2607  -7.2205
    -6.4833  -6.0634  -6.0054  -5.6741  -5.3332  -5.0422  -4.6121  -4.5763
    -4.3227  -4.0538  -3.9259  -3.5829  -2.7332  -2.7239  -2.6776  -2.6241
    -2.5369  -2.4710  -2.4078  -2.3845  -2.3283  -2.2793  -2.2143  -2.1197

          k = 0.2996 0.1730 0.3111 ( 28821 PWs)   bands (ev):

   -20.8131 -20.5530 -20.4603 -20.4487 -20.3575 -20.3006 -20.0966 -20.0680
   -19.9943 -19.8719 -19.8151 -19.6552  -8.2902  -8.2283  -8.1503  -8.0570
    -8.0423  -7.8994  -7.6934  -7.5340  -7.4379  -7.3989  -7.2986  -7.2631
    -6.5787  -5.9468  -5.7987  -5.6586  -5.4781  -5.0435  -4.7858  -4.5840
    -4.4424  -4.0244  -3.9065  -3.4873  -2.8608  -2.7839  -2.7094  -2.6337
    -2.5401  -2.5005  -2.4190  -2.3863  -2.3016  -2.2550  -2.1848  -2.1566

          k = 0.4494-0.2595-0.9332 ( 28841 PWs)   bands (ev):

   -20.6779 -20.6760 -20.5336 -20.4708 -20.3436 -20.2705 -20.1355 -20.0529
   -19.9072 -19.8521 -19.8010 -19.7123  -8.2844  -8.2308  -8.1808  -8.0581
    -8.0118  -7.8634  -7.7608  -7.5583  -7.4463  -7.4160  -7.2770  -7.2524
    -6.2505  -6.1626  -5.8274  -5.7824  -5.4910  -5.1057  -4.7823  -4.4962
    -4.1717  -4.0789  -3.9402  -3.5573  -2.8603  -2.8024  -2.7615  -2.6366
    -2.5954  -2.5295  -2.3718  -2.3445  -2.3205  -2.2678  -2.1876  -2.1144

          k = 0.2996-0.3460-0.6221 ( 28824 PWs)   bands (ev):

   -20.6281 -20.6261 -20.5182 -20.5073 -20.3805 -20.3792 -20.0522 -20.0484
   -19.8957 -19.8891 -19.7612 -19.7562  -8.2928  -8.1618  -8.1291  -8.1042
    -8.0717  -7.8730  -7.6058  -7.5814  -7.4071  -7.3995  -7.2786  -7.2748
    -6.2046  -6.0957  -5.8809  -5.8285  -5.3974  -5.3577  -4.6380  -4.5633
    -4.1795  -4.1343  -3.9216  -3.5645  -2.9778  -2.8190  -2.7619  -2.6718
    -2.6184  -2.4891  -2.4211  -2.3786  -2.3574  -2.2199  -2.1963  -2.0977

          k = 0.0000 0.0000-1.8663 ( 28818 PWs)   bands (ev):

   -20.5932 -20.5777 -20.4883 -20.4883 -20.4764 -20.4764 -19.9742 -19.9742
   -19.9522 -19.9522 -19.7445 -19.7438  -8.3225  -8.1270  -8.1270  -8.0929
    -8.0929  -7.8300  -7.6466  -7.6156  -7.3536  -7.3536  -7.3405  -7.3405
    -6.0372  -5.9935  -5.7125  -5.7125  -5.7119  -5.7119  -4.4276  -4.4276
    -4.2411  -4.2411  -3.9027  -3.5115  -3.0025  -2.8186  -2.8186  -2.7109
    -2.7109  -2.4379  -2.4231  -2.3161  -2.3161  -2.2324  -2.2324  -2.0646

          k = 0.2996-0.3460 0.3111 ( 28788 PWs)   bands (ev):

   -20.7641 -20.6004 -20.4921 -20.4663 -20.3704 -20.3073 -20.0857 -19.9928
   -19.9527 -19.8863 -19.8117 -19.7046  -8.2827  -8.2152  -8.1378  -8.0976
    -8.0027  -7.9515  -7.7060  -7.5879  -7.4902  -7.3057  -7.2542  -7.2205
    -6.4819  -6.0589  -5.9736  -5.6336  -5.4289  -5.0786  -4.8058  -4.4171
    -4.2753  -4.1030  -3.9630  -3.5857  -2.8498  -2.7482  -2.7030  -2.6084
    -2.5400  -2.4903  -2.4269  -2.4212  -2.3562  -2.2499  -2.2066  -2.1150

     highest occupied level (ev):    -2.0646

!    total energy              =    -413.90994113 Ry
     estimated scf accuracy    <       0.00000007 Ry

     The total energy is the sum of the following terms:
     one-electron contribution =    -289.55248258 Ry
     hartree contribution      =     179.59265930 Ry
     xc contribution           =    -101.77035151 Ry
     ewald contribution        =    -202.17976634 Ry

     convergence has been achieved in   7 iterations

     Forces acting on atoms (cartesian axes, Ry/au):

     atom    1 type  2   force =    -0.00719921    0.00450050    0.01079399
     atom    2 type  2   force =     0.00719921   -0.00450050   -0.01079399
     atom    3 type  2   force =    -0.00029794   -0.00848495    0.01079399
     atom    4 type  2   force =     0.00029794    0.00848495   -0.01079399
     atom    5 type  2   force =     0.00749715    0.00398445    0.01079399
     atom    6 type  2   force =    -0.00749715   -0.00398445   -0.01079399
     atom    7 type  2   force =    -0.00695444   -0.00560535   -0.00081276
     atom    8 type  2   force =     0.00695444    0.00560535    0.00081276
     atom    9 type  2   force =     0.00833159   -0.00322005   -0.00081276
     atom   10 type  2   force =    -0.00833159    0.00322005    0.00081276
     atom   11 type  2   force =    -0.00137715    0.00882539   -0.00081276
     atom   12 type  2   force =     0.00137715   -0.00882539    0.00081276
     atom   13 type  1   force =    -0.01433805    0.01380183   -0.04523793
     atom   14 type  1   force =     0.01433805   -0.01380183    0.04523793
     atom   15 type  1   force =    -0.00478371   -0.01931803   -0.04523793
     atom   16 type  1   force =     0.00478371    0.01931803    0.04523793
     atom   17 type  1   force =     0.01912176    0.00551620   -0.04523793
     atom   18 type  1   force =    -0.01912176   -0.00551620    0.04523793
     atom   19 type  1   force =     0.02285761   -0.02397050    0.02636735
     atom   20 type  1   force =    -0.02285761    0.02397050   -0.02636735
     atom   21 type  1   force =     0.00933026    0.03178052    0.02636735
     atom   22 type  1   force =    -0.00933026   -0.03178052   -0.02636735
     atom   23 type  1   force =    -0.03218786   -0.00781002    0.02636735
     atom   24 type  1   force =     0.03218786    0.00781002   -0.02636735
     atom   25 type  1   force =    -0.00180071    0.01423859    0.00827456
     atom   26 type  1   force =     0.00180071   -0.01423859   -0.00827456
     atom   27 type  1   force =    -0.01143063   -0.00867876    0.00827456
     atom   28 type  1   force =     0.01143063    0.00867876   -0.00827456
     atom   29 type  1   force =     0.01323134   -0.00555983    0.00827456
     atom   30 type  1   force =    -0.01323134    0.00555983   -0.00827456
     atom   31 type  1   force =    -0.00130161   -0.02062214   -0.00297403
     atom   32 type  1   force =     0.00130161    0.02062214    0.00297403
     atom   33 type  1   force =     0.01851010    0.00918385   -0.00297403
     atom   34 type  1   force =    -0.01851010   -0.00918385    0.00297403
     atom   35 type  1   force =    -0.01720850    0.01143829   -0.00297403
     atom   36 type  1   force =     0.01720850   -0.01143829    0.00297403

     Total force =     0.176875     Total SCF correction =     0.000269


     Computing stress (Cartesian axis) and pressure

          total   stress  (Ry/bohr**3)                   (kbar)     P=       20.25
   0.00009081  -0.00000000  -0.00000000           13.36       -0.00       -0.00
   0.00000000   0.00009081   0.00000000            0.00       13.36        0.00
  -0.00000000   0.00000000   0.00023127           -0.00        0.00       34.02

     Energy error            =      5.5E-02 Ry
     Gradient error          =      4.5E-02 Ry/Bohr

     number of scf cycles    =   2
     number of bfgs steps    =   1

     energy             old  =    -413.8546247653 Ry
     energy             new  =    -413.9099411300 Ry

     CASE: energy            _new < energy            _old

     new trust radius        =       0.1317904948 bohr
     new conv_thr            =       0.0000001000 Ry


ATOMIC_POSITIONS (crystal)
O                0.2730176990        0.0332962140        0.8592776327
O                0.7269823010        0.9667037970        0.1407223373
O                0.8592776327        0.2730176990        0.0332962140
O                0.1407223373        0.7269823010        0.9667037970
O                0.0332962140        0.8592776327        0.2730176990
O                0.9667037970        0.1407223373        0.7269823010
O                0.4734740650        0.7485641984        0.3313088987
O                0.5265259350        0.2514358016        0.6686910713
O                0.3313088987        0.4734740650        0.7485641984
O                0.6686910713        0.5265259350        0.2514358016
O                0.7485641984        0.3313088987        0.4734740650
O                0.2514358016        0.6686910713        0.5265259350
H                0.1480084411        0.0534336993        0.7956011836
H                0.8519915449        0.9465662927        0.2043988164
H                0.7956011836        0.1480084411        0.0534336993
H                0.2043988164        0.8519915449        0.9465662927
H                0.0534336993        0.7956011836        0.1480084411
H                0.9465662927        0.2043988164        0.8519915449
H                0.4276279648        0.2072308686        1.0037137462
H                0.5723720352        0.7927691464       -0.0037137672
H                1.0037137462        0.4276279648        0.2072308686
H               -0.0037137672        0.5723720352        0.7927691464
H                0.2072308686        1.0037137462        0.4276279648
H                0.7927691464       -0.0037137672        0.5723720352
H                0.7201715198        0.4063127066        0.3978393752
H                0.2798284802        0.5936872634        0.6021606548
H                0.3978393752        0.7201715198        0.4063127066
H                0.6021606548        0.2798284802        0.5936872634
H                0.4063127066        0.3978393752        0.7201715198
H                0.5936872634        0.6021606548        0.2798284802
H                0.7420054780        0.2005698494        0.3639856930
H                0.2579945220        0.7994301356        0.6360143070
H                0.3639856930        0.7420054780        0.2005698494
H                0.6360143070        0.2579945220        0.7994301356
H                0.2005698494        0.3639856930        0.7420054780
H                0.7994301356        0.6360143070        0.2579945220



     Writing config-only to output data dir ./iceII/iceII.save/ :
     XML data file
     NEW-OLD atomic charge density approx. for the potential

     total cpu time spent up to now is       21.8 secs

     per-process dynamical memory:    25.1 Mb

     Self-consistent Calculation

     iteration #  1     ecut=    90.00 Ry     beta= 0.70
     Davidson diagonalization with overlap
     ethr =  1.00E-06,  avg # of iterations =  8.1

     total cpu time spent up to now is       23.8 secs

     total energy              =    -413.95620599 Ry
     estimated scf accuracy    <       0.00487028 Ry

     iteration #  2     ecut=    90.00 Ry     beta= 0.70
     Davidson diagonalization with overlap
     ethr =  5.07E-06,  avg # of iterations =  2.0

     total cpu time spent up to now is       24.5 secs

     total energy              =    -413.95694938 Ry
     estimated scf accuracy    <       0.00043481 Ry

     iteration #  3     ecut=    90.00 Ry     beta= 0.70
     Davidson diagonalization with overlap
     ethr =  4.53E-07,  avg # of iterations =  2.0

     total cpu time spent up to now is       25.3 secs

     total energy              =    -413.95702682 Ry
     estimated scf accuracy    <       0.00004076 Ry

     iteration #  4     ecut=    90.00 Ry     beta= 0.70
     Davidson diagonalization with overlap
     ethr =  4.25E-08,  avg # of iterations =  2.0

     total cpu time spent up to now is       26.1 secs

     total energy              =    -413.95703212 Ry
     estimated scf accuracy    <       0.00000180 Ry

     iteration #  5     ecut=    90.00 Ry     beta= 0.70
     Davidson diagonalization with overlap
     ethr =  1.88E-09,  avg # of iterations =  2.4

     total cpu time spent up to now is       26.9 secs

     End of self-consistent calculation

          k = 0.0000 0.0000 0.0000 ( 28817 PWs)   bands (ev):

   -20.7976 -20.3300 -20.3300 -20.0561 -20.0561 -20.0331 -20.0331 -20.0165
   -20.0070 -19.6630 -19.6630 -19.3606  -8.4350  -8.2590  -8.2590  -8.2534
    -8.1557  -8.1557  -7.7863  -7.7818  -7.7818  -7.7287  -7.7287  -7.5825
    -6.7400  -5.4872  -5.4872  -5.0001  -5.0001  -4.7853  -4.7853  -4.4917
    -4.4560  -3.7623  -3.7623  -3.0738  -2.6997  -2.6997  -2.6326  -2.4657
    -2.4657  -2.4436  -2.3076  -2.2736  -2.2736  -2.2272  -2.1935  -2.1935

          k =-0.1498-0.0865 0.3111 ( 28780 PWs)   bands (ev):

   -20.7222 -20.3660 -20.3327 -20.1999 -20.1628 -20.1113 -19.9655 -19.9117
   -19.8625 -19.6714 -19.6316 -19.4173  -8.3923  -8.3103  -8.2680  -8.2276
    -8.1504  -8.0978  -7.8537  -7.8111  -7.7508  -7.6731  -7.6436  -7.6157
    -6.5161  -5.6878  -5.5341  -5.2713  -5.1250  -4.7715  -4.5699  -4.4529
    -4.2748  -3.7613  -3.6816  -3.2280  -2.7958  -2.7376  -2.6386  -2.5364
    -2.5115  -2.4478  -2.3930  -2.3012  -2.2728  -2.2095  -2.1822  -2.1435

          k = 0.2996 0.1730-0.6221 ( 28800 PWs)   bands (ev):

   -20.5645 -20.4806 -20.3627 -20.2697 -20.2058 -20.1572 -19.9292 -19.8634
   -19.7540 -19.6585 -19.5969 -19.5210  -8.3302  -8.3288  -8.2683  -8.2369
    -8.1571  -8.0785  -7.8454  -7.8177  -7.7373  -7.7183  -7.5809  -7.5648
    -6.0847  -5.9969  -5.5865  -5.5816  -5.0594  -5.0167  -4.4085  -4.3297
    -3.8955  -3.8841  -3.6392  -3.4783  -2.8720  -2.7627  -2.6569  -2.5779
    -2.5397  -2.4908  -2.4021  -2.3795  -2.3106  -2.2040  -2.1294  -2.1016

          k =-0.1498 0.0865 0.6221 ( 28777 PWs)   bands (ev):

   -20.5802 -20.4235 -20.4009 -20.2667 -20.2187 -20.1657 -19.9115 -19.8385
   -19.7787 -19.6487 -19.6219 -19.5087  -8.3380  -8.3044  -8.2967  -8.2297
    -8.1526  -8.0718  -7.8401  -7.8279  -7.7861  -7.6360  -7.6076  -7.5737
    -6.1273  -5.8612  -5.8136  -5.3558  -5.1854  -5.0136  -4.4122  -4.1817
    -4.1061  -3.7510  -3.6702  -3.4898  -2.8553  -2.7903  -2.6506  -2.5617
    -2.5205  -2.4853  -2.4457  -2.3454  -2.3268  -2.2043  -2.1465  -2.0867

          k = 0.2996 0.3460-0.3111 ( 28788 PWs)   bands (ev):

   -20.6231 -20.4587 -20.3859 -20.2584 -20.1804 -20.1330 -19.9238 -19.8448
   -19.7533 -19.7003 -19.5981 -19.4942  -8.3567  -8.3359  -8.2347  -8.2245
    -8.1716  -8.0789  -7.9359  -7.9082  -7.8139  -7.6208  -7.5938  -7.5502
    -6.2224  -5.8472  -5.6005  -5.4305  -5.3329  -4.8049  -4.3167  -4.2274
    -4.1428  -3.8286  -3.6580  -3.4077  -2.7849  -2.7421  -2.6571  -2.5853
    -2.4942  -2.4195  -2.4100  -2.3765  -2.3113  -2.2483  -2.1361  -2.0645

          k = 0.1498 0.2595 0.0000 ( 28791 PWs)   bands (ev):

   -20.7419 -20.4088 -20.3507 -20.1737 -20.1314 -20.0417 -19.9988 -19.9103
   -19.8710 -19.6765 -19.6336 -19.4068  -8.4114  -8.3075  -8.2627  -8.2094
    -8.1353  -8.1336  -7.9625  -7.8737  -7.7721  -7.6867  -7.6313  -7.5690
    -6.5433  -5.5773  -5.5257  -5.3089  -5.2145  -4.6793  -4.5052  -4.3453
    -4.3170  -3.8096  -3.7484  -3.1523  -2.7032  -2.6815  -2.6668  -2.5476
    -2.4760  -2.4357  -2.3378  -2.3176  -2.2969  -2.2467  -2.1389  -2.1258

          k = 0.2996-0.1730-1.2442 ( 28834 PWs)   bands (ev):

   -20.6027 -20.5794 -20.3685 -20.2227 -20.1413 -20.0578 -19.9546 -19.8839
   -19.7804 -19.7019 -19.5485 -19.5028  -8.3749  -8.3343  -8.2497  -8.2129
    -8.1093  -8.1093  -8.0447  -7.9568  -7.7940  -7.6751  -7.5893  -7.5483
    -6.0764  -6.0704  -5.5597  -5.4939  -5.0906  -4.7948  -4.3394  -4.2396
    -4.0646  -3.9815  -3.5661  -3.3812  -2.7229  -2.6749  -2.6554  -2.5967
    -2.4881  -2.3896  -2.3890  -2.3603  -2.3194  -2.2582  -2.0980  -2.0870

          k = 0.0000 0.0000 0.9332 ( 28839 PWs)   bands (ev):

   -20.5026 -20.5026 -20.4893 -20.2835 -20.1649 -20.1649 -19.8346 -19.8346
   -19.7676 -19.6158 -19.6158 -19.5778  -8.3361  -8.3361  -8.2501  -8.2079
    -8.1496  -8.1496  -7.9575  -7.8814  -7.8814  -7.5624  -7.5624  -7.5294
    -5.9727  -5.9727  -5.7905  -5.5747  -5.0807  -5.0807  -4.1006  -4.1006
    -4.0344  -3.7458  -3.7458  -3.6750  -2.7425  -2.7425  -2.6274  -2.6061
    -2.4538  -2.4538  -2.3940  -2.3791  -2.3791  -2.1976  -2.1976  -2.0367

          k = 0.4494 0.2595 0.0000 ( 28808 PWs)   bands (ev):

   -20.6389 -20.4739 -20.4646 -20.2047 -20.1162 -20.0650 -19.9469 -19.9072
   -19.7948 -19.6481 -19.5990 -19.4853  -8.3724  -8.3230  -8.2798  -8.1786
    -8.1525  -8.0919  -8.0470  -7.9147  -7.8512  -7.6300  -7.5875  -7.5678
    -6.2191  -5.7712  -5.7453  -5.4939  -5.0567  -4.7622  -4.3793  -4.3466
    -4.0194  -3.8144  -3.7029  -3.3488  -2.7014  -2.6892  -2.6581  -2.6035
    -2.4951  -2.4211  -2.3776  -2.3531  -2.2824  -2.2324  -2.1672  -2.0578

          k = 0.2996 0.1730 0.3111 ( 28821 PWs)   bands (ev):

   -20.6709 -20.4177 -20.3444 -20.2618 -20.1612 -20.1143 -19.9414 -19.9102
   -19.7874 -19.6948 -19.6007 -19.4491  -8.3731  -8.3177  -8.2746  -8.1903
    -8.1756  -8.0530  -7.9587  -7.8038  -7.7517  -7.7321  -7.6254  -7.5904
    -6.3459  -5.7111  -5.5869  -5.3213  -5.2822  -4.7949  -4.4521  -4.3404
    -4.2304  -3.7685  -3.6728  -3.2633  -2.8040  -2.7449  -2.6788  -2.5866
    -2.5102  -2.4597  -2.3756  -2.3490  -2.2793  -2.2194  -2.1494  -2.0878

          k = 0.4494-0.2595-0.9332 ( 28841 PWs)   bands (ev):

   -20.5442 -20.5314 -20.3995 -20.2829 -20.1664 -20.0941 -19.9638 -19.8795
   -19.7058 -19.6945 -19.6062 -19.4850  -8.3446  -8.3236  -8.2801  -8.1885
    -8.1551  -8.0395  -8.0047  -7.8636  -7.7720  -7.7275  -7.6117  -7.5827
    -6.0324  -5.9042  -5.6106  -5.5508  -5.1852  -4.7737  -4.5538  -4.2975
    -3.9439  -3.7915  -3.7095  -3.3302  -2.8001  -2.7576  -2.7157  -2.5924
    -2.5470  -2.5076  -2.3486  -2.3071  -2.3027  -2.2362  -2.1471  -2.0423

          k = 0.2996-0.3460-0.6221 ( 28824 PWs)   bands (ev):

   -20.5334 -20.4449 -20.3878 -20.3298 -20.2021 -20.1786 -19.9059 -19.8707
   -19.7089 -19.6765 -19.6301 -19.4941  -8.3527  -8.2794  -8.2528  -8.2292
    -8.1976  -8.0199  -7.8802  -7.8663  -7.7207  -7.7083  -7.6135  -7.6058
    -5.9437  -5.9130  -5.6412  -5.5990  -5.1459  -5.0991  -4.3246  -4.2589
    -3.9575  -3.9312  -3.6305  -3.4051  -2.8770  -2.7726  -2.7200  -2.6212
    -2.5621  -2.4685  -2.3809  -2.3545  -2.3336  -2.1964  -2.1641  -2.0306

          k = 0.0000 0.0000-1.8663 ( 28818 PWs)   bands (ev):

   -20.4965 -20.3989 -20.3989 -20.3510 -20.2465 -20.2465 -19.8392 -19.8392
   -19.7161 -19.7161 -19.6412 -19.4717  -8.3597  -8.2294  -8.2294  -8.2288
    -8.2288  -7.9884  -7.9127  -7.9021  -7.6816  -7.6816  -7.6709  -7.6709
    -5.9102  -5.7851  -5.5005  -5.5005  -5.3458  -5.3458  -4.1087  -4.1087
    -4.0925  -4.0925  -3.5963  -3.3522  -2.8633  -2.7695  -2.7695  -2.6625
    -2.6625  -2.4290  -2.3837  -2.2990  -2.2990  -2.2055  -2.2055  -1.9886

          k = 0.2996-0.3460 0.3111 ( 28788 PWs)   bands (ev):

   -20.6215 -20.4729 -20.3632 -20.2652 -20.1854 -20.1363 -19.9047 -19.8535
   -19.7787 -19.6669 -19.6131 -19.4928  -8.3643  -8.3197  -8.2532  -8.2110
    -8.1650  -8.0898  -7.9682  -7.8778  -7.8075  -7.6182  -7.5959  -7.5546
    -6.2258  -5.8382  -5.6405  -5.3997  -5.2870  -4.8620  -4.4279  -4.1169
    -4.0368  -3.8645  -3.7456  -3.3753  -2.7934  -2.7135  -2.6706  -2.5854
    -2.4919  -2.4383  -2.3956  -2.3774  -2.3376  -2.2161  -2.1393  -2.0701

     highest occupied level (ev):    -1.9886

!    total energy              =    -413.95703263 Ry
     estimated scf accuracy    <       0.00000010 Ry

     The total energy is the sum of the following terms:
     one-electron contribution =    -286.97516481 Ry
     hartree contribution      =     178.43650467 Ry
     xc contribution           =    -101.63996269 Ry
     ewald contribution        =    -203.77840980 Ry

     convergence has been achieved in   5 iterations

     Forces acting on atoms (cartesian axes, Ry/au):

     atom    1 type  2   force =    -0.00204259   -0.00402968   -0.00255697
     atom    2 type  2   force =     0.00204259    0.00402968    0.00255697
     atom    3 type  2   force =     0.00451110    0.00024590   -0.00255697
     atom    4 type  2   force =    -0.00451110   -0.00024590    0.00255697
     atom    5 type  2   force =    -0.00246851    0.00378378   -0.00255697
     atom    6 type  2   force =     0.00246851   -0.00378378    0.00255697
     atom    7 type  2   force =     0.00695160   -0.00169119   -0.00338694
     atom    8 type  2   force =    -0.00695160    0.00169119    0.00338694
     atom    9 type  2   force =    -0.00201119    0.00686585   -0.00338694
     atom   10 type  2   force =     0.00201119   -0.00686585    0.00338694
     atom   11 type  2   force =    -0.00494041   -0.00517467   -0.00338694
     atom   12 type  2   force =     0.00494041    0.00517467    0.00338694
     atom   13 type  1   force =    -0.00513363   -0.00135374   -0.00421146
     atom   14 type  1   force =     0.00513363    0.00135374    0.00421146
     atom   15 type  1   force =     0.00373919   -0.00376899   -0.00421146
     atom   16 type  1   force =    -0.00373919    0.00376899    0.00421146
     atom   17 type  1   force =     0.00139445    0.00512273   -0.00421146
     atom   18 type  1   force =    -0.00139445   -0.00512273    0.00421146
     atom   19 type  1   force =     0.00798854    0.00212616    0.00142467
     atom   20 type  1   force =    -0.00798854   -0.00212616   -0.00142467
     atom   21 type  1   force =    -0.00583558    0.00585520    0.00142467
     atom   22 type  1   force =     0.00583558   -0.00585520   -0.00142467
     atom   23 type  1   force =    -0.00215296   -0.00798136    0.00142467
     atom   24 type  1   force =     0.00215296    0.00798136   -0.00142467
     atom   25 type  1   force =     0.00571852    0.00843132    0.00388823
     atom   26 type  1   force =    -0.00571852   -0.00843132   -0.00388823
     atom   27 type  1   force =    -0.01016100    0.00073672    0.00388823
     atom   28 type  1   force =     0.01016100   -0.00073672   -0.00388823
     atom   29 type  1   force =     0.00444248   -0.00916804    0.00388823
     atom   30 type  1   force =    -0.00444248    0.00916804   -0.00388823
     atom   31 type  1   force =    -0.00307834   -0.00300909    0.00089052
     atom   32 type  1   force =     0.00307834    0.00300909   -0.00089052
     atom   33 type  1   force =     0.00414512   -0.00116137    0.00089052
     atom   34 type  1   force =    -0.00414512    0.00116137   -0.00089052
     atom   35 type  1   force =    -0.00106678    0.00417047    0.00089052
     atom   36 type  1   force =     0.00106678   -0.00417047   -0.00089052

     Total force =     0.045440     Total SCF correction =     0.000493


     Computing stress (Cartesian axis) and pressure

          total   stress  (Ry/bohr**3)                   (kbar)     P=        1.48
  -0.00000933  -0.00000000  -0.00000000           -1.37       -0.00       -0.00
   0.00000000  -0.00000933  -0.00000000            0.00       -1.37       -0.00
  -0.00000000  -0.00000000   0.00004885           -0.00       -0.00        7.19

     Energy error            =      4.7E-02 Ry
     Gradient error          =      1.0E-02 Ry/Bohr

     number of scf cycles    =   3
     number of bfgs steps    =   2

     energy             old  =    -413.9099411300 Ry
     energy             new  =    -413.9570326324 Ry

     CASE: energy            _new < energy            _old

     new trust radius        =       0.0170802634 bohr
     new conv_thr            =       0.0000001000 Ry


ATOMIC_POSITIONS (crystal)
O                0.2727840779        0.0334025129        0.8595451462
O                0.7272159221        0.9665974981        0.1404548238
O                0.8595451462        0.2727840779        0.0334025129
O                0.1404548238        0.7272159221        0.9665974981
O                0.0334025129        0.8595451462        0.2727840779
O                0.9665974981        0.1404548238        0.7272159221
O                0.4732386864        0.7480733784        0.3306723915
O                0.5267613136        0.2519266216        0.6693275785
O                0.3306723915        0.4732386864        0.7480733784
O                0.6693275785        0.5267613136        0.2519266216
O                0.7480733784        0.3306723915        0.4732386864
O                0.2519266216        0.6693275785        0.5267613136
H                0.1464335869        0.0520513844        0.7946349443
H                0.8535663991        0.9479486076        0.2053650557
H                0.7946349443        0.1464335869        0.0520513844
H                0.2053650557        0.8535663991        0.9479486076
H                0.0520513844        0.7946349443        0.1464335869
H                0.9479486076        0.2053650557        0.8535663991
H                0.4289181844        0.2075982397        1.0038183403
H                0.5710818156        0.7924017753       -0.0038183613
H                1.0038183403        0.4289181844        0.2075982397
H               -0.0038183613        0.5710818156        0.7924017753
H                0.2075982397        1.0038183403        0.4289181844
H                0.7924017753       -0.0038183613        0.5710818156
H                0.7206438384        0.4074277441        0.3978944963
H                0.2793561616        0.5925722259        0.6021055337
H                0.3978944963        0.7206438384        0.4074277441
H                0.6021055337        0.2793561616        0.5925722259
H                0.4074277441        0.3978944963        0.7206438384
H                0.5925722259        0.6021055337        0.2793561616
H                0.7420879599        0.2003633738        0.3645292565
H                0.2579120401        0.7996366112        0.6354707435
H                0.3645292565        0.7420879599        0.2003633738
H                0.6354707435        0.2579120401        0.7996366112
H                0.2003633738        0.3645292565        0.7420879599
H                0.7996366112        0.6354707435        0.2579120401



     Writing config-only to output data dir ./iceII/iceII.save/ :
     XML data file
     NEW-OLD atomic charge density approx. for the potential

     total cpu time spent up to now is       28.0 secs

     per-process dynamical memory:    25.1 Mb

     Self-consistent Calculation

     iteration #  1     ecut=    90.00 Ry     beta= 0.70
     Davidson diagonalization with overlap
     ethr =  1.00E-06,  avg # of iterations =  3.9

     total cpu time spent up to now is       29.2 secs

     total energy              =    -413.95864123 Ry
     estimated scf accuracy    <       0.00024253 Ry

     iteration #  2     ecut=    90.00 Ry     beta= 0.70
     Davidson diagonalization with overlap
     ethr =  2.53E-07,  avg # of iterations =  3.0

     total cpu time spent up to now is       30.0 secs

     total energy              =    -413.95869059 Ry
     estimated scf accuracy    <       0.00004662 Ry

     iteration #  3     ecut=    90.00 Ry     beta= 0.70
     Davidson diagonalization with overlap
     ethr =  4.86E-08,  avg # of iterations =  3.0

     total cpu time spent up to now is       30.9 secs

     total energy              =    -413.95870189 Ry
     estimated scf accuracy    <       0.00000264 Ry

     iteration #  4     ecut=    90.00 Ry     beta= 0.70
     Davidson diagonalization with overlap
     ethr =  2.75E-09,  avg # of iterations =  2.0

     total cpu time spent up to now is       31.6 secs

     total energy              =    -413.95870219 Ry
     estimated scf accuracy    <       0.00000041 Ry

     iteration #  5     ecut=    90.00 Ry     beta= 0.70
     Davidson diagonalization with overlap
     ethr =  4.23E-10,  avg # of iterations =  3.0

     total cpu time spent up to now is       32.5 secs

     End of self-consistent calculation

          k = 0.0000 0.0000 0.0000 ( 28817 PWs)   bands (ev):

   -20.7639 -20.2968 -20.2968 -20.0193 -20.0193 -19.9880 -19.9880 -19.9755
   -19.9690 -19.6154 -19.6154 -19.3124  -8.4325  -8.2563  -8.2563  -8.2331
    -8.1568  -8.1568  -7.7915  -7.7747  -7.7747  -7.7312  -7.7312  -7.5924
    -6.7164  -5.4626  -5.4626  -4.9860  -4.9860  -4.7419  -4.7419  -4.4903
    -4.4053  -3.7319  -3.7319  -3.0413  -2.6946  -2.6946  -2.6203  -2.4563
    -2.4563  -2.4351  -2.2998  -2.2586  -2.2586  -2.2141  -2.1878  -2.1878

          k =-0.1498-0.0865 0.3111 ( 28780 PWs)   bands (ev):

   -20.6888 -20.3326 -20.3014 -20.1587 -20.1184 -20.0715 -19.9263 -19.8724
   -19.8229 -19.6233 -19.5838 -19.3685  -8.3889  -8.3069  -8.2633  -8.2131
    -8.1502  -8.0962  -7.8503  -7.8110  -7.7526  -7.6738  -7.6481  -7.6181
    -6.4932  -5.6634  -5.5055  -5.2498  -5.1084  -4.7534  -4.5244  -4.4294
    -4.2304  -3.7338  -3.6543  -3.1955  -2.7871  -2.7317  -2.6279  -2.5312
    -2.5042  -2.4413  -2.3784  -2.2882  -2.2689  -2.2015  -2.1671  -2.1358

          k = 0.2996 0.1730-0.6221 ( 28800 PWs)   bands (ev):

   -20.5342 -20.4445 -20.3303 -20.2273 -20.1648 -20.1142 -19.8929 -19.8237
   -19.7154 -19.6109 -19.5509 -19.4684  -8.3277  -8.3259  -8.2553  -8.2330
    -8.1528  -8.0752  -7.8436  -7.8164  -7.7457  -7.7175  -7.5835  -7.5645
    -6.0533  -5.9821  -5.5695  -5.5446  -5.0382  -5.0068  -4.3588  -4.2940
    -3.8628  -3.8539  -3.6156  -3.4510  -2.8587  -2.7567  -2.6488  -2.5737
    -2.5356  -2.4704  -2.3952  -2.3818  -2.2953  -2.1990  -2.1131  -2.0942

          k =-0.1498 0.0865 0.6221 ( 28777 PWs)   bands (ev):

   -20.5489 -20.3899 -20.3662 -20.2262 -20.1756 -20.1243 -19.8732 -19.8019
   -19.7380 -19.6021 -19.5743 -19.4571  -8.3362  -8.2985  -8.2916  -8.2190
    -8.1501  -8.0677  -7.8387  -7.8270  -7.7909  -7.6369  -7.6099  -7.5751
    -6.1037  -5.8359  -5.7882  -5.3297  -5.1712  -4.9925  -4.3750  -4.1385
    -4.0689  -3.7278  -3.6440  -3.4623  -2.8433  -2.7817  -2.6452  -2.5572
    -2.5058  -2.4814  -2.4351  -2.3424  -2.3155  -2.1959  -2.1346  -2.0762

          k = 0.2996 0.3460-0.3111 ( 28788 PWs)   bands (ev):

   -20.5896 -20.4255 -20.3532 -20.2170 -20.1372 -20.0936 -19.8859 -19.8061
   -19.7162 -19.6494 -19.5501 -19.4442  -8.3524  -8.3326  -8.2325  -8.2134
    -8.1686  -8.0713  -7.9389  -7.9051  -7.8158  -7.6223  -7.5980  -7.5526
    -6.1979  -5.8153  -5.5879  -5.4170  -5.2980  -4.7751  -4.2878  -4.1862
    -4.1159  -3.7991  -3.6311  -3.3749  -2.7740  -2.7334  -2.6503  -2.5764
    -2.4864  -2.4084  -2.4017  -2.3711  -2.3054  -2.2409  -2.1205  -2.0554

          k = 0.1498 0.2595 0.0000 ( 28791 PWs)   bands (ev):

   -20.7080 -20.3752 -20.3170 -20.1358 -20.0903 -19.9993 -19.9606 -19.8691
   -19.8314 -19.6287 -19.5852 -19.3586  -8.4082  -8.3001  -8.2617  -8.2001
    -8.1349  -8.1279  -7.9615  -7.8690  -7.7764  -7.6858  -7.6331  -7.5766
    -6.5192  -5.5454  -5.5109  -5.2879  -5.1896  -4.6413  -4.4743  -4.3239
    -4.2846  -3.7779  -3.7184  -3.1185  -2.6969  -2.6756  -2.6557  -2.5377
    -2.4651  -2.4249  -2.3344  -2.3086  -2.2889  -2.2341  -2.1279  -2.1157

          k = 0.2996-0.1730-1.2442 ( 28834 PWs)   bands (ev):

   -20.5680 -20.5459 -20.3345 -20.1850 -20.1013 -20.0150 -19.9182 -19.8422
   -19.7406 -19.6528 -19.5022 -19.4526  -8.3694  -8.3307  -8.2505  -8.2048
    -8.1076  -8.0985  -8.0447  -7.9517  -7.7996  -7.6737  -7.5951  -7.5520
    -6.0542  -6.0409  -5.5367  -5.4799  -5.0631  -4.7548  -4.3046  -4.2274
    -4.0341  -3.9413  -3.5428  -3.3432  -2.7126  -2.6664  -2.6477  -2.5884
    -2.4755  -2.3822  -2.3752  -2.3603  -2.3135  -2.2482  -2.0872  -2.0744

          k = 0.0000 0.0000 0.9332 ( 28839 PWs)   bands (ev):

   -20.4677 -20.4677 -20.4602 -20.2371 -20.1264 -20.1264 -19.7935 -19.7935
   -19.7352 -19.5683 -19.5683 -19.5235  -8.3314  -8.3314  -8.2519  -8.1955
    -8.1453  -8.1453  -7.9591  -7.8805  -7.8805  -7.5646  -7.5646  -7.5325
    -5.9448  -5.9448  -5.7507  -5.5837  -5.0516  -5.0516  -4.0733  -4.0733
    -3.9805  -3.7226  -3.7226  -3.6410  -2.7321  -2.7321  -2.6187  -2.6024
    -2.4422  -2.4422  -2.3819  -2.3785  -2.3785  -2.1840  -2.1840  -2.0279

          k = 0.4494 0.2595 0.0000 ( 28808 PWs)   bands (ev):

   -20.6047 -20.4405 -20.4297 -20.1629 -20.0809 -20.0265 -19.9047 -19.8633
   -19.7571 -19.6009 -19.5507 -19.4362  -8.3678  -8.3162  -8.2808  -8.1717
    -8.1491  -8.0843  -8.0445  -7.9124  -7.8539  -7.6325  -7.5896  -7.5736
    -6.1940  -5.7443  -5.7196  -5.4815  -5.0287  -4.7250  -4.3589  -4.3140
    -3.9827  -3.7872  -3.6749  -3.3135  -2.6898  -2.6804  -2.6523  -2.5933
    -2.4859  -2.4135  -2.3691  -2.3474  -2.2727  -2.2243  -2.1580  -2.0445

          k = 0.2996 0.1730 0.3111 ( 28821 PWs)   bands (ev):

   -20.6373 -20.3843 -20.3131 -20.2201 -20.1208 -20.0706 -19.9058 -19.8703
   -19.7437 -19.6499 -19.5525 -19.3997  -8.3699  -8.3154  -8.2654  -8.1809
    -8.1735  -8.0483  -7.9566  -7.8021  -7.7530  -7.7362  -7.6320  -7.5916
    -6.3230  -5.6907  -5.5603  -5.3132  -5.2392  -4.7711  -4.4084  -4.3114
    -4.2048  -3.7388  -3.6458  -3.2298  -2.7949  -2.7357  -2.6691  -2.5781
    -2.5030  -2.4509  -2.3651  -2.3395  -2.2769  -2.2114  -2.1435  -2.0704

          k = 0.4494-0.2595-0.9332 ( 28841 PWs)   bands (ev):

   -20.5114 -20.4971 -20.3661 -20.2412 -20.1275 -20.0534 -19.9246 -19.8386
   -19.6670 -19.6472 -19.5595 -19.4335  -8.3432  -8.3185  -8.2735  -8.1819
    -8.1462  -8.0380  -7.9955  -7.8665  -7.7769  -7.7285  -7.6172  -7.5863
    -6.0158  -5.8756  -5.5899  -5.5276  -5.1507  -4.7429  -4.5199  -4.2699
    -3.9179  -3.7601  -3.6840  -3.2959  -2.7897  -2.7456  -2.7057  -2.5830
    -2.5388  -2.4991  -2.3430  -2.3022  -2.2962  -2.2313  -2.1390  -2.0245

          k = 0.2996-0.3460-0.6221 ( 28824 PWs)   bands (ev):

   -20.5032 -20.4099 -20.3553 -20.2879 -20.1605 -20.1354 -19.8695 -19.8320
   -19.6654 -19.6287 -19.5879 -19.4410  -8.3520  -8.2724  -8.2417  -8.2242
    -8.1928  -8.0126  -7.8794  -7.8664  -7.7286  -7.7091  -7.6166  -7.6081
    -5.9306  -5.8861  -5.6193  -5.5677  -5.1190  -5.0694  -4.2922  -4.2228
    -3.9285  -3.9043  -3.6019  -3.3793  -2.8601  -2.7640  -2.7109  -2.6131
    -2.5504  -2.4706  -2.3689  -2.3474  -2.3263  -2.1910  -2.1571  -2.0143

          k = 0.0000 0.0000-1.8663 ( 28818 PWs)   bands (ev):

   -20.4661 -20.3682 -20.3682 -20.3059 -20.2034 -20.2034 -19.8030 -19.8030
   -19.6653 -19.6653 -19.6058 -19.4184  -8.3591  -8.2278  -8.2278  -8.2145
    -8.2145  -7.9780  -7.9125  -7.9025  -7.6920  -7.6920  -7.6709  -7.6709
    -5.9151  -5.7409  -5.4861  -5.4861  -5.2995  -5.2995  -4.0932  -4.0932
    -4.0511  -4.0511  -3.5700  -3.3272  -2.8384  -2.7604  -2.7604  -2.6533
    -2.6533  -2.4377  -2.3655  -2.2949  -2.2949  -2.1988  -2.1988  -1.9712

          k = 0.2996-0.3460 0.3111 ( 28788 PWs)   bands (ev):

   -20.5879 -20.4400 -20.3310 -20.2223 -20.1440 -20.0964 -19.8635 -19.8189
   -19.7372 -19.6188 -19.5653 -19.4427  -8.3603  -8.3152  -8.2491  -8.2084
    -8.1526  -8.0869  -7.9686  -7.8771  -7.8089  -7.6184  -7.6003  -7.5578
    -6.2000  -5.8197  -5.6075  -5.3799  -5.2698  -4.8319  -4.3893  -4.0843
    -4.0089  -3.8317  -3.7210  -3.3430  -2.7833  -2.7022  -2.6647  -2.5767
    -2.4858  -2.4290  -2.3863  -2.3657  -2.3355  -2.2101  -2.1234  -2.0605

     highest occupied level (ev):    -1.9712

!    total energy              =    -413.95870229 Ry
     estimated scf accuracy    <       0.00000003 Ry

     The total energy is the sum of the following terms:
     one-electron contribution =    -286.26352871 Ry
     hartree contribution      =     178.11471684 Ry
     xc contribution           =    -101.58277382 Ry
     ewald contribution        =    -204.22711659 Ry

     convergence has been achieved in   5 iterations

     Forces acting on atoms (cartesian axes, Ry/au):

     atom    1 type  2   force =    -0.00102913   -0.00370137    0.00030454
     atom    2 type  2   force =     0.00102913    0.00370137   -0.00030454
     atom    3 type  2   force =     0.00372004    0.00095943    0.00030454
     atom    4 type  2   force =    -0.00372004   -0.00095943   -0.00030454
     atom    5 type  2   force =    -0.00269091    0.00274194    0.00030454
     atom    6 type  2   force =     0.00269091   -0.00274194   -0.00030454
     atom    7 type  2   force =    -0.00434861   -0.00771628   -0.00150958
     atom    8 type  2   force =     0.00434861    0.00771628    0.00150958
     atom    9 type  2   force =     0.00885680    0.00009213   -0.00150958
     atom   10 type  2   force =    -0.00885680   -0.00009213    0.00150958
     atom   11 type  2   force =    -0.00450819    0.00762415   -0.00150958
     atom   12 type  2   force =     0.00450819   -0.00762415    0.00150958
     atom   13 type  1   force =    -0.00405158   -0.00284070   -0.00007769
     atom   14 type  1   force =     0.00405158    0.00284070    0.00007769
     atom   15 type  1   force =     0.00448591   -0.00208841   -0.00007769
     atom   16 type  1   force =    -0.00448591    0.00208841    0.00007769
     atom   17 type  1   force =    -0.00043433    0.00492912   -0.00007769
     atom   18 type  1   force =     0.00043433   -0.00492912    0.00007769
     atom   19 type  1   force =     0.00582204    0.00364604   -0.00491265
     atom   20 type  1   force =    -0.00582204   -0.00364604    0.00491265
     atom   21 type  1   force =    -0.00606858    0.00321902   -0.00491265
     atom   22 type  1   force =     0.00606858   -0.00321902    0.00491265
     atom   23 type  1   force =     0.00024654   -0.00686506   -0.00491265
     atom   24 type  1   force =    -0.00024654    0.00686506    0.00491265
     atom   25 type  1   force =     0.00249540   -0.00358047    0.00387824
     atom   26 type  1   force =    -0.00249540    0.00358047   -0.00387824
     atom   27 type  1   force =     0.00185308    0.00395131    0.00387824
     atom   28 type  1   force =    -0.00185308   -0.00395131   -0.00387824
     atom   29 type  1   force =    -0.00434848   -0.00037084    0.00387824
     atom   30 type  1   force =     0.00434848    0.00037084   -0.00387824
     atom   31 type  1   force =    -0.00049357   -0.00348821   -0.00102341
     atom   32 type  1   force =     0.00049357    0.00348821    0.00102341
     atom   33 type  1   force =     0.00326766    0.00131666   -0.00102341
     atom   34 type  1   force =    -0.00326766   -0.00131666    0.00102341
     atom   35 type  1   force =    -0.00277409    0.00217155   -0.00102341
     atom   36 type  1   force =     0.00277409   -0.00217155    0.00102341

     Total force =     0.037864     Total SCF correction =     0.000149


     Computing stress (Cartesian axis) and pressure

          total   stress  (Ry/bohr**3)                   (kbar)     P=       -4.50
  -0.00005090   0.00000000  -0.00000000           -7.49        0.00       -0.00
  -0.00000000  -0.00005090  -0.00000000           -0.00       -7.49       -0.00
  -0.00000000  -0.00000000   0.00001008           -0.00       -0.00        1.48

     Energy error            =      1.7E-03 Ry
     Gradient error          =      8.9E-03 Ry/Bohr

     number of scf cycles    =   4
     number of bfgs steps    =   3

     energy             old  =    -413.9570326324 Ry
     energy             new  =    -413.9587022892 Ry

     CASE: energy            _new < energy            _old

     new trust radius        =       0.0172946170 bohr
     new conv_thr            =       0.0000000167 Ry


ATOMIC_POSITIONS (crystal)
O                0.2726893836        0.0333588267        0.8599375970
O                0.7273106164        0.9666411843        0.1400623730
O                0.8599375970        0.2726893836        0.0333588267
O                0.1400623730        0.7273106164        0.9666411843
O                0.0333588267        0.8599375970        0.2726893836
O                0.9666411843        0.1400623730        0.7273106164
O                0.4728796539        0.7471288749        0.3304954649
O                0.5271203461        0.2528711251        0.6695045051
O                0.3304954649        0.4728796539        0.7471288749
O                0.6695045051        0.5271203461        0.2528711251
O                0.7471288749        0.3304954649        0.4728796539
O                0.2528711251        0.6695045051        0.5271203461
H                0.1452115556        0.0508712471        0.7942206002
H                0.8547884304        0.9491287449        0.2057793998
H                0.7942206002        0.1452115556        0.0508712471
H                0.2057793998        0.8547884304        0.9491287449
H                0.0508712471        0.7942206002        0.1452115556
H                0.9491287449        0.2057793998        0.8547884304
H                0.4295040876        0.2075325667        1.0029866406
H                0.5704959124        0.7924674483       -0.0029866616
H                1.0029866406        0.4295040876        0.2075325667
H               -0.0029866616        0.5704959124        0.7924674483
H                0.2075325667        1.0029866406        0.4295040876
H                0.7924674483       -0.0029866616        0.5704959124
H                0.7216026744        0.4083989195        0.3983302611
H                0.2783973256        0.5916010505        0.6016697689
H                0.3983302611        0.7216026744        0.4083989195
H                0.6016697689        0.2783973256        0.5916010505
H                0.4083989195        0.3983302611        0.7216026744
H                0.5916010505        0.6016697689        0.2783973256
H                0.7421191276        0.1999343442        0.3649587584
H                0.2578808724        0.8000656408        0.6350412416
H                0.3649587584        0.7421191276        0.1999343442
H                0.6350412416        0.2578808724        0.8000656408
H                0.1999343442        0.3649587584        0.7421191276
H                0.8000656408        0.6350412416        0.2578808724



     Writing config-only to output data dir ./iceII/iceII.save/ :
     XML data file
     NEW-OLD atomic charge density approx. for the potential

     total cpu time spent up to now is       33.6 secs

     per-process dynamical memory:    25.1 Mb

     Self-consistent Calculation

     iteration #  1     ecut=    90.00 Ry     beta= 0.70
     Davidson diagonalization with overlap
     ethr =  1.00E-06,  avg # of iterations =  3.8

     total cpu time spent up to now is       34.8 secs

     total energy              =    -413.96022629 Ry
     estimated scf accuracy    <       0.00024094 Ry

     iteration #  2     ecut=    90.00 Ry     beta= 0.70
     Davidson diagonalization with overlap
     ethr =  2.51E-07,  avg # of iterations =  2.0

     total cpu time spent up to now is       35.5 secs

     total energy              =    -413.96027249 Ry
     estimated scf accuracy    <       0.00001546 Ry

     iteration #  3     ecut=    90.00 Ry     beta= 0.70
     Davidson diagonalization with overlap
     ethr =  1.61E-08,  avg # of iterations =  2.0

     total cpu time spent up to now is       36.3 secs

     total energy              =    -413.96027592 Ry
     estimated scf accuracy    <       0.00000164 Ry

     iteration #  4     ecut=    90.00 Ry     beta= 0.70
     Davidson diagonalization with overlap
     ethr =  1.71E-09,  avg # of iterations =  2.0

     total cpu time spent up to now is       37.1 secs

     total energy              =    -413.96027626 Ry
     estimated scf accuracy    <       0.00000011 Ry

     iteration #  5     ecut=    90.00 Ry     beta= 0.70
     Davidson diagonalization with overlap
     ethr =  1.12E-10,  avg # of iterations =  2.1

     total cpu time spent up to now is       37.9 secs

     End of self-consistent calculation

          k = 0.0000 0.0000 0.0000 ( 28817 PWs)   bands (ev):

   -20.7442 -20.2741 -20.2741 -19.9917 -19.9917 -19.9734 -19.9734 -19.9616
   -19.9413 -19.5976 -19.5976 -19.2907  -8.4090  -8.2533  -8.2533  -8.2429
    -8.1421  -8.1421  -7.7895  -7.7818  -7.7818  -7.7493  -7.7493  -7.6226
    -6.6975  -5.4537  -5.4537  -4.9687  -4.9687  -4.7127  -4.7127  -4.4961
    -4.3750  -3.7135  -3.7135  -3.0154  -2.6850  -2.6850  -2.6193  -2.4579
    -2.4579  -2.4277  -2.3063  -2.2655  -2.2655  -2.2066  -2.1856  -2.1856

          k =-0.1498-0.0865 0.3111 ( 28780 PWs)   bands (ev):

   -20.6686 -20.3092 -20.2775 -20.1381 -20.1038 -20.0502 -19.9052 -19.8484
   -19.7986 -19.6065 -19.5665 -19.3477  -8.3685  -8.2975  -8.2597  -8.2193
    -8.1382  -8.0908  -7.8587  -7.8164  -7.7681  -7.6833  -7.6633  -7.6337
    -6.4788  -5.6519  -5.4952  -5.2336  -5.0853  -4.7411  -4.5007  -4.4123
    -4.2061  -3.7165  -3.6391  -3.1682  -2.7760  -2.7208  -2.6254  -2.5302
    -2.5055  -2.4434  -2.3765  -2.2888  -2.2704  -2.2034  -2.1695  -2.1396

          k = 0.2996 0.1730-0.6221 ( 28800 PWs)   bands (ev):

   -20.5119 -20.4242 -20.3061 -20.2069 -20.1482 -20.0962 -19.8684 -19.7990
   -19.6928 -19.5927 -19.5309 -19.4519  -8.3147  -8.3112  -8.2551  -8.2263
    -8.1481  -8.0738  -7.8520  -7.8311  -7.7564  -7.7240  -7.5939  -7.5770
    -6.0443  -5.9700  -5.5564  -5.5242  -5.0192  -4.9909  -4.3368  -4.2767
    -3.8453  -3.8322  -3.6030  -3.4229  -2.8453  -2.7448  -2.6404  -2.5784
    -2.5366  -2.4678  -2.4012  -2.3783  -2.2961  -2.2021  -2.1172  -2.1007

          k =-0.1498 0.0865 0.6221 ( 28777 PWs)   bands (ev):

   -20.5273 -20.3667 -20.3440 -20.2076 -20.1581 -20.1048 -19.8502 -19.7760
   -19.7148 -19.5840 -19.5566 -19.4393  -8.3194  -8.2913  -8.2788  -8.2260
    -8.1408  -8.0653  -7.8486  -7.8386  -7.8011  -7.6476  -7.6200  -7.5864
    -6.0945  -5.8219  -5.7743  -5.3121  -5.1555  -4.9722  -4.3585  -4.1177
    -4.0471  -3.7118  -3.6287  -3.4347  -2.8304  -2.7693  -2.6371  -2.5614
    -2.5047  -2.4844  -2.4352  -2.3410  -2.3160  -2.2005  -2.1386  -2.0820

          k = 0.2996 0.3460-0.3111 ( 28788 PWs)   bands (ev):

   -20.5686 -20.4032 -20.3301 -20.1998 -20.1191 -20.0711 -19.8638 -19.7834
   -19.6888 -19.6340 -19.5320 -19.4255  -8.3343  -8.3183  -8.2302  -8.2121
    -8.1583  -8.0747  -7.9390  -7.9145  -7.8286  -7.6346  -7.6172  -7.5695
    -6.1808  -5.7986  -5.5804  -5.3957  -5.2834  -4.7538  -4.2780  -4.1674
    -4.0916  -3.7777  -3.6158  -3.3499  -2.7624  -2.7226  -2.6436  -2.5749
    -2.4874  -2.4076  -2.4032  -2.3733  -2.3055  -2.2451  -2.1228  -2.0597

          k = 0.1498 0.2595 0.0000 ( 28791 PWs)   bands (ev):

   -20.6879 -20.3530 -20.2943 -20.1145 -20.0701 -19.9810 -19.9372 -19.8510
   -19.8055 -19.6108 -19.5676 -19.3376  -8.3857  -8.2935  -8.2547  -8.1994
    -8.1259  -8.1254  -7.9615  -7.8779  -7.7885  -7.7017  -7.6488  -7.6028
    -6.4997  -5.5270  -5.4982  -5.2716  -5.1814  -4.6153  -4.4507  -4.3182
    -4.2605  -3.7568  -3.7014  -3.0946  -2.6876  -2.6656  -2.6502  -2.5366
    -2.4652  -2.4212  -2.3399  -2.3134  -2.2917  -2.2327  -2.1288  -2.1155

          k = 0.2996-0.1730-1.2442 ( 28834 PWs)   bands (ev):

   -20.5463 -20.5256 -20.3118 -20.1655 -20.0796 -19.9976 -19.8918 -19.8252
   -19.7137 -19.6359 -19.4828 -19.4337  -8.3513  -8.3132  -8.2391  -8.2001
[...]
H                0.2067124604        0.8584945563        0.9618500024
H                0.0381499896        0.7932875396        0.1415054297
H                0.9618500024        0.2067124604        0.8584945563
H                0.4251541603        0.1934792271        0.9899712268
H                0.5748458397        0.8065207879        0.0100287522
H                0.9899712268        0.4251541603        0.1934792271
H                0.0100287522        0.5748458397        0.8065207879
H                0.1934792271        0.9899712268        0.4251541603
H                0.8065207879        0.0100287522        0.5748458397
H                0.7291433275        0.4136780513        0.4093181642
H                0.2708566725        0.5863219187        0.5906818658
H                0.4093181642        0.7291433275        0.4136780513
H                0.5906818658        0.2708566725        0.5863219187
H                0.4136780513        0.4093181642        0.7291433275
H                0.5863219187        0.5906818658        0.2708566725
H                0.7446190294        0.2038669782        0.3735741711
H                0.2553809706        0.7961330068        0.6264258289
H                0.3735741711        0.7446190294        0.2038669782
H                0.6264258289        0.2553809706        0.7961330068
H                0.2038669782        0.3735741711        0.7446190294
H                0.7961330068        0.6264258289        0.2553809706



     Writing config-only to output data dir ./iceII/iceII.save/ :
     XML data file
     NEW-OLD atomic charge density approx. for the potential

     negative rho (up, down):  1.304E-07 0.000E+00

     total cpu time spent up to now is      326.5 secs

     per-process dynamical memory:    30.3 Mb

     Self-consistent Calculation

     iteration #  1     ecut=    90.00 Ry     beta= 0.70
     Davidson diagonalization with overlap
     ethr =  1.00E-06,  avg # of iterations =  2.0

     Threshold (ethr) on eigenvalues was too large:
     Diagonalizing with lowered threshold

     Davidson diagonalization with overlap
     ethr =  7.69E-10,  avg # of iterations =  5.0

     negative rho (up, down):  1.318E-07 0.000E+00

     total cpu time spent up to now is      328.4 secs

     total energy              =    -413.96703774 Ry
     estimated scf accuracy    <       0.00000124 Ry

     iteration #  2     ecut=    90.00 Ry     beta= 0.70
     Davidson diagonalization with overlap
     ethr =  1.29E-09,  avg # of iterations =  2.0

     negative rho (up, down):  1.321E-07 0.000E+00

     total cpu time spent up to now is      329.2 secs

     total energy              =    -413.96703791 Ry
     estimated scf accuracy    <       0.00000009 Ry

     iteration #  3     ecut=    90.00 Ry     beta= 0.70
     Davidson diagonalization with overlap
     ethr =  9.59E-11,  avg # of iterations =  2.0

     negative rho (up, down):  1.322E-07 0.000E+00

     total cpu time spent up to now is      330.1 secs

     total energy              =    -413.96703793 Ry
     estimated scf accuracy    <       0.00000002 Ry

     iteration #  4     ecut=    90.00 Ry     beta= 0.70
     Davidson diagonalization with overlap
     ethr =  1.97E-11,  avg # of iterations =  2.0

     negative rho (up, down):  1.323E-07 0.000E+00

     total cpu time spent up to now is      330.8 secs

     End of self-consistent calculation

          k = 0.0000 0.0000 0.0000 ( 28817 PWs)   bands (ev):

   -20.7516 -20.2664 -20.2664 -20.0305 -20.0305 -20.0159 -19.9772 -19.9772
   -19.9540 -19.6481 -19.6481 -19.3059  -8.2953  -8.1543  -8.1531  -8.1531
    -8.0593  -8.0593  -7.7392  -7.7392  -7.7287  -7.7287  -7.7193  -7.6741
    -6.6923  -5.5282  -5.5282  -4.9690  -4.9690  -4.7091  -4.7091  -4.6453
    -4.4229  -3.7426  -3.7426  -2.9652  -2.6638  -2.6638  -2.5811  -2.4759
    -2.4759  -2.4167  -2.3379  -2.3379  -2.3361  -2.2413  -2.2018  -2.2018

          k =-0.1498-0.0865 0.3111 ( 28780 PWs)   bands (ev):

   -20.6749 -20.3029 -20.2576 -20.1799 -20.1444 -20.0731 -19.9316 -19.8711
   -19.8085 -19.6568 -19.6116 -19.3681  -8.2562  -8.1953  -8.1618  -8.1330
    -8.0551  -8.0109  -7.8179  -7.7776  -7.7429  -7.6836  -7.6306  -7.6138
    -6.4935  -5.7072  -5.5551  -5.2578  -5.0822  -4.8194  -4.5270  -4.4439
    -4.2455  -3.7441  -3.6716  -3.1233  -2.7487  -2.6886  -2.6007  -2.5492
    -2.5272  -2.4636  -2.3864  -2.3236  -2.2926  -2.2588  -2.2038  -2.1943

          k = 0.2996 0.1730-0.6221 ( 28800 PWs)   bands (ev):

   -20.4937 -20.4543 -20.2873 -20.2450 -20.1671 -20.1350 -19.8807 -19.8394
   -19.7026 -19.6400 -19.5457 -19.4986  -8.2155  -8.2035  -8.1548  -8.1409
    -8.0646  -7.9916  -7.8177  -7.7952  -7.7533  -7.6884  -7.5669  -7.5507
    -6.1026  -5.9941  -5.6012  -5.5404  -5.0620  -5.0188  -4.3832  -4.3279
    -3.8636  -3.8362  -3.6448  -3.3833  -2.8198  -2.7117  -2.6198  -2.6133
    -2.5519  -2.4635  -2.4401  -2.3585  -2.3262  -2.2490  -2.1758  -2.1712

          k =-0.1498 0.0865 0.6221 ( 28777 PWs)   bands (ev):

   -20.5241 -20.3645 -20.3525 -20.2287 -20.1984 -20.1286 -19.8770 -19.7887
   -19.7425 -19.6167 -19.5922 -19.4751  -8.2135  -8.1911  -8.1732  -8.1501
    -8.0504  -7.9833  -7.8158  -7.8007  -7.7888  -7.6287  -7.5910  -7.5572
    -6.1407  -5.8564  -5.8042  -5.3460  -5.2013  -4.9987  -4.4070  -4.1615
    -4.0700  -3.7299  -3.6410  -3.4088  -2.8096  -2.7345  -2.6203  -2.5771
    -2.5255  -2.5049  -2.4480  -2.3412  -2.3277  -2.2572  -2.1939  -2.1520

          k = 0.2996 0.3460-0.3111 ( 28788 PWs)   bands (ev):

   -20.5704 -20.3973 -20.3219 -20.2452 -20.1602 -20.0895 -19.8954 -19.7890
   -19.7015 -19.6778 -19.5709 -19.4608  -8.2232  -8.2150  -8.1421  -8.1201
    -8.0625  -8.0010  -7.8909  -7.8597  -7.7952  -7.6320  -7.6152  -7.5619
    -6.2011  -5.8364  -5.6316  -5.3941  -5.3439  -4.7935  -4.3565  -4.2153
    -4.0848  -3.7811  -3.6405  -3.3367  -2.7413  -2.6895  -2.6289  -2.5681
    -2.5177  -2.4451  -2.4127  -2.3875  -2.3089  -2.2973  -2.1706  -2.1233

          k = 0.1498 0.2595 0.0000 ( 28791 PWs)   bands (ev):

   -20.6942 -20.3446 -20.2851 -20.1555 -20.1023 -20.0254 -19.9482 -19.8764
   -19.8047 -19.6570 -19.6190 -19.3587  -8.2703  -8.1874  -8.1571  -8.1198
    -8.0483  -8.0389  -7.8860  -7.8273  -7.7542  -7.6858  -7.6584  -7.6215
    -6.5029  -5.5887  -5.5364  -5.2835  -5.2361  -4.6482  -4.5046  -4.3637
    -4.2837  -3.7752  -3.7330  -3.0666  -2.6649  -2.6437  -2.6203  -2.5312
    -2.4841  -2.4447  -2.3811  -2.3606  -2.3136  -2.2659  -2.1665  -2.1514

          k = 0.2996-0.1730-1.2442 ( 28834 PWs)   bands (ev):

   -20.5522 -20.5222 -20.2991 -20.2112 -20.0999 -20.0566 -19.8754 -19.8716
   -19.7032 -19.6910 -19.5108 -19.4771  -8.2346  -8.2051  -8.1453  -8.1152
    -8.0275  -8.0231  -7.9734  -7.8910  -7.7781  -7.6803  -7.6404  -7.5894
    -6.0502  -6.0288  -5.5576  -5.5075  -5.1367  -4.7812  -4.3179  -4.2555
    -4.0454  -3.9035  -3.5372  -3.3377  -2.6712  -2.6387  -2.6121  -2.5698
    -2.4962  -2.4400  -2.4263  -2.3618  -2.3441  -2.2736  -2.1310  -2.1201

          k = 0.0000 0.0000 0.9332 ( 28839 PWs)   bands (ev):

   -20.4479 -20.4479 -20.4040 -20.3133 -20.1197 -20.1197 -19.8089 -19.8089
   -19.6677 -19.5846 -19.5846 -19.5724  -8.2105  -8.2105  -8.1602  -8.1069
    -8.0528  -8.0528  -7.9152  -7.8425  -7.8425  -7.5804  -7.5804  -7.5463
    -5.9346  -5.9346  -5.8322  -5.5627  -5.0941  -5.0941  -4.1089  -4.1089
    -3.9898  -3.7110  -3.7110  -3.5865  -2.6940  -2.6940  -2.6009  -2.5629
    -2.4913  -2.4913  -2.4185  -2.3721  -2.3721  -2.2375  -2.2375  -2.0973

          k = 0.4494 0.2595 0.0000 ( 28808 PWs)   bands (ev):

   -20.5876 -20.4101 -20.4069 -20.2108 -20.0593 -20.0296 -19.9198 -19.8842
   -19.7090 -19.6230 -19.5788 -19.4512  -8.2326  -8.1939  -8.1712  -8.0863
    -8.0635  -7.9938  -7.9894  -7.8644  -7.8167  -7.6585  -7.6249  -7.6070
    -6.1838  -5.7398  -5.7038  -5.5468  -5.1006  -4.7710  -4.3911  -4.2814
    -3.9648  -3.7939  -3.6856  -3.2961  -2.6551  -2.6405  -2.6259  -2.5622
    -2.5170  -2.4556  -2.4114  -2.3857  -2.3025  -2.2502  -2.1815  -2.0986

          k = 0.2996 0.1730 0.3111 ( 28821 PWs)   bands (ev):

   -20.6213 -20.3524 -20.2692 -20.2442 -20.1481 -20.0862 -19.8977 -19.8539
   -19.7661 -19.6495 -19.5821 -19.4089  -8.2375  -8.1995  -8.1614  -8.0974
    -8.0675  -7.9773  -7.8946  -7.7754  -7.7519  -7.7276  -7.6570  -7.5905
    -6.3258  -5.7092  -5.6224  -5.3021  -5.2641  -4.7970  -4.4441  -4.2865
    -4.2366  -3.7274  -3.6572  -3.1911  -2.7691  -2.6790  -2.6358  -2.6040
    -2.5414  -2.4560  -2.3898  -2.3655  -2.2910  -2.2606  -2.1846  -2.1330

          k = 0.4494-0.2595-0.9332 ( 28841 PWs)   bands (ev):

   -20.4830 -20.4784 -20.3323 -20.2757 -20.1414 -20.0548 -19.9346 -19.8289
   -19.6847 -19.6270 -19.5731 -19.4651  -8.2162  -8.1905  -8.1634  -8.0836
    -8.0503  -7.9623  -7.9356  -7.8412  -7.7710  -7.7298  -7.6453  -7.6025
    -6.0296  -5.8636  -5.6694  -5.5042  -5.2000  -4.7771  -4.5374  -4.2330
    -3.9574  -3.7146  -3.6825  -3.3068  -2.7695  -2.6981  -2.6604  -2.6131
    -2.5794  -2.4845  -2.3817  -2.3472  -2.2948  -2.2668  -2.1815  -2.0886

          k = 0.2996-0.3460-0.6221 ( 28824 PWs)   bands (ev):

   -20.4578 -20.4134 -20.3200 -20.3038 -20.1700 -20.1580 -19.8569 -19.8370
   -19.6740 -19.6542 -19.5620 -19.4812  -8.2214  -8.1670  -8.1386  -8.1212
    -8.0897  -7.9448  -7.8472  -7.8320  -7.7466  -7.7017  -7.6071  -7.5946
    -5.9750  -5.9295  -5.6351  -5.5677  -5.1172  -5.0730  -4.3357  -4.2599
    -3.9140  -3.8850  -3.5750  -3.3693  -2.8392  -2.7132  -2.6663  -2.6589
    -2.5749  -2.5008  -2.3746  -2.3457  -2.3353  -2.2410  -2.2211  -2.0890

          k = 0.0000 0.0000-1.8663 ( 28818 PWs)   bands (ev):

   -20.4163 -20.3586 -20.3149 -20.3149 -20.2446 -20.2446 -19.7721 -19.7721
   -19.7143 -19.7143 -19.5594 -19.4614  -8.2230  -8.1153  -8.1153  -8.1094
    -8.1094  -7.9304  -7.8759  -7.8482  -7.7209  -7.7209  -7.6536  -7.6536
    -5.9837  -5.7857  -5.4577  -5.4577  -5.3309  -5.3309  -4.0971  -4.0971
    -4.0549  -4.0549  -3.5171  -3.3484  -2.8197  -2.7057  -2.7057  -2.7040
    -2.7040  -2.4628  -2.3412  -2.2934  -2.2934  -2.2743  -2.2743  -2.0431

          k = 0.2996-0.3460 0.3111 ( 28788 PWs)   bands (ev):

   -20.5697 -20.4059 -20.2962 -20.2653 -20.1588 -20.0899 -19.8900 -19.7811
   -19.7441 -19.6305 -19.5886 -19.4597  -8.2327  -8.1963  -8.1552  -8.1022
    -8.0743  -8.0059  -7.9068  -7.8438  -7.7917  -7.6349  -7.6047  -7.5706
    -6.2036  -5.8275  -5.6677  -5.3540  -5.3108  -4.8576  -4.4395  -4.1051
    -3.9917  -3.8404  -3.7107  -3.3061  -2.7519  -2.6612  -2.6332  -2.5668
    -2.5258  -2.4537  -2.4093  -2.3944  -2.3367  -2.2577  -2.1760  -2.1247

     highest occupied level (ev):    -2.0431

!    total energy              =    -413.96703793 Ry
     estimated scf accuracy    <          7.3E-10 Ry

     The total energy is the sum of the following terms:
     one-electron contribution =    -285.60893770 Ry
     hartree contribution      =     177.81219115 Ry
     xc contribution           =    -101.58044646 Ry
     ewald contribution        =    -204.58984492 Ry

     convergence has been achieved in   4 iterations

     Forces acting on atoms (cartesian axes, Ry/au):

     atom    1 type  2   force =    -0.00004460    0.00003734    0.00001118
     atom    2 type  2   force =     0.00004460   -0.00003734   -0.00001118
     atom    3 type  2   force =    -0.00001004   -0.00005729    0.00001118
     atom    4 type  2   force =     0.00001004    0.00005729   -0.00001118
     atom    5 type  2   force =     0.00005464    0.00001995    0.00001118
     atom    6 type  2   force =    -0.00005464   -0.00001995   -0.00001118
     atom    7 type  2   force =    -0.00004881    0.00006713   -0.00002012
     atom    8 type  2   force =     0.00004881   -0.00006713    0.00002012
     atom    9 type  2   force =    -0.00003373   -0.00007583   -0.00002012
     atom   10 type  2   force =     0.00003373    0.00007583    0.00002012
     atom   11 type  2   force =     0.00008254    0.00000871   -0.00002012
     atom   12 type  2   force =    -0.00008254   -0.00000871    0.00002012
     atom   13 type  1   force =     0.00006858   -0.00011520    0.00009362
     atom   14 type  1   force =    -0.00006858    0.00011520   -0.00009362
     atom   15 type  1   force =     0.00006547    0.00011700    0.00009362
     atom   16 type  1   force =    -0.00006547   -0.00011700   -0.00009362
     atom   17 type  1   force =    -0.00013406   -0.00000180    0.00009362
     atom   18 type  1   force =     0.00013406    0.00000180   -0.00009362
     atom   19 type  1   force =    -0.00000094    0.00003765   -0.00007673
     atom   20 type  1   force =     0.00000094   -0.00003765    0.00007673
     atom   21 type  1   force =    -0.00003214   -0.00001964   -0.00007673
     atom   22 type  1   force =     0.00003214    0.00001964    0.00007673
     atom   23 type  1   force =     0.00003308   -0.00001801   -0.00007673
     atom   24 type  1   force =    -0.00003308    0.00001801    0.00007673
     atom   25 type  1   force =     0.00002356   -0.00007438    0.00001996
     atom   26 type  1   force =    -0.00002356    0.00007438   -0.00001996
     atom   27 type  1   force =     0.00005263    0.00005759    0.00001996
     atom   28 type  1   force =    -0.00005263   -0.00005759   -0.00001996
     atom   29 type  1   force =    -0.00007619    0.00001678    0.00001996
     atom   30 type  1   force =     0.00007619   -0.00001678   -0.00001996
     atom   31 type  1   force =    -0.00006003    0.00002448    0.00001871
     atom   32 type  1   force =     0.00006003   -0.00002448   -0.00001871
     atom   33 type  1   force =     0.00000881   -0.00006423    0.00001871
     atom   34 type  1   force =    -0.00000881    0.00006423   -0.00001871
     atom   35 type  1   force =     0.00005122    0.00003975    0.00001871
     atom   36 type  1   force =    -0.00005122   -0.00003975   -0.00001871

     Total force =     0.000579     Total SCF correction =     0.000057


     Computing stress (Cartesian axis) and pressure

          total   stress  (Ry/bohr**3)                   (kbar)     P=       -3.96
  -0.00003937   0.00000000  -0.00000000           -5.79        0.00       -0.00
  -0.00000000  -0.00003937  -0.00000000           -0.00       -5.79       -0.00
  -0.00000000  -0.00000000  -0.00000197           -0.00       -0.00       -0.29

     Energy error            =      8.0E-07 Ry
     Gradient error          =      1.3E-04 Ry/Bohr

     number of scf cycles    =  50
     number of bfgs steps    =  49

     energy             old  =    -413.9670371387 Ry
     energy             new  =    -413.9670379337 Ry

     CASE: energy            _new < energy            _old

     new trust radius        =       0.0017101756 bohr

     The maximum number of steps has been reached.

     End of BFGS Geometry Optimization

ATOMIC_POSITIONS (crystal)
O                0.2679953964        0.0187655636        0.8557834888
O                0.7320046036        0.9812344474        0.1442164812
O                0.8557834888        0.2679953964        0.0187655636
O                0.1442164812        0.7320046036        0.9812344474
O                0.0187655636        0.8557834888        0.2679953964
O                0.9812344474        0.1442164812        0.7320046036
O                0.4827630192        0.7502600123        0.3340017336
O                0.5172369808        0.2497399877        0.6659982364
O                0.3340017336        0.4827630192        0.7502600123
O                0.6659982364        0.5172369808        0.2497399877
O                0.7502600123        0.3340017336        0.4827630192
O                0.2497399877        0.6659982364        0.5172369808
H                0.1415439317        0.0380530403        0.7932868126
H                0.8584560543        0.9619469517        0.2067131874
H                0.7932868126        0.1415439317        0.0380530403
H                0.2067131874        0.8584560543        0.9619469517
H                0.0380530403        0.7932868126        0.1415439317
H                0.9619469517        0.2067131874        0.8584560543
H                0.4251722261        0.1934625644        0.9899817352
H                0.5748277739        0.8065374506        0.0100182438
H                0.9899817352        0.4251722261        0.1934625644
H                0.0100182438        0.5748277739        0.8065374506
H                0.1934625644        0.9899817352        0.4251722261
H                0.8065374506        0.0100182438        0.5748277739
H                0.7291337104        0.4136630556        0.4093509630
H                0.2708662896        0.5863369144        0.5906490670
H                0.4093509630        0.7291337104        0.4136630556
H                0.5906490670        0.2708662896        0.5863369144
H                0.4136630556        0.4093509630        0.7291337104
H                0.5863369144        0.5906490670        0.2708662896
H                0.7446062169        0.2038678215        0.3736193519
H                0.2553937831        0.7961321635        0.6263806481
H                0.3736193519        0.7446062169        0.2038678215
H                0.6263806481        0.2553937831        0.7961321635
H                0.2038678215        0.3736193519        0.7446062169
H                0.7961321635        0.6263806481        0.2553937831



     Writing config-only to output data dir ./iceII/iceII.save/ :
     XML data file
     NEW-OLD atomic charge density approx. for the potential

     negative rho (up, down):  1.323E-07 0.000E+00

     Writing all to output data dir ./iceII/iceII.save/ :
     XML data file, charge density, pseudopotentials, collected wavefunctions

     init_run     :      0.89s CPU      0.97s WALL (       1 calls)
     electrons    :    272.10s CPU    276.79s WALL (      50 calls)
     update_pot   :      1.29s CPU      1.35s WALL (      50 calls)
     forces       :      6.17s CPU      6.19s WALL (      50 calls)
     stress       :     42.28s CPU     42.33s WALL (      50 calls)

     Called by init_run:
     wfcinit      :      0.33s CPU      0.35s WALL (       1 calls)
     potinit      :      0.03s CPU      0.05s WALL (       1 calls)
     hinit0       :      0.38s CPU      0.40s WALL (       1 calls)

     Called by electrons:
     c_bands      :    230.40s CPU    232.53s WALL (     317 calls)
     sum_band     :     33.17s CPU     33.46s WALL (     317 calls)
     v_of_rho     :      6.58s CPU      6.72s WALL (     329 calls)
     newd         :      1.12s CPU      1.15s WALL (     329 calls)
     mix_rho      :      0.76s CPU      0.77s WALL (     317 calls)

     Called by c_bands:
     init_us_2    :      3.99s CPU      4.16s WALL (    2940 calls)
     cegterg      :    222.52s CPU    223.89s WALL (    1268 calls)

     Called by *egterg:
     cdiaghg      :     16.84s CPU     16.87s WALL (    4293 calls)
     h_psi        :    169.48s CPU    170.74s WALL (    4649 calls)
     s_psi        :      7.16s CPU      7.17s WALL (    4649 calls)
     g_psi        :      0.47s CPU      0.47s WALL (    3377 calls)

     Called by h_psi:
     h_psi:calbec :     11.71s CPU     11.77s WALL (    4649 calls)
     vloc_psi     :    149.29s CPU    150.47s WALL (    4649 calls)
     add_vuspsi   :      7.30s CPU      7.33s WALL (    4649 calls)

     General routines
     calbec       :     17.15s CPU     17.24s WALL (    6917 calls)
     fft          :      4.54s CPU      4.66s WALL (    4108 calls)
     ffts         :      0.37s CPU      0.38s WALL (     317 calls)
     fftw         :    156.67s CPU    157.82s WALL (  428072 calls)
     davcio       :      0.00s CPU      0.00s WALL (       4 calls)

     Parallel routines

     PWSCF        :   5m26.42s CPU   5m32.46s WALL


   This run was terminated on:  18:32:42  31Mar2026            

=------------------------------------------------------------------------------=
   JOB DONE.
=------------------------------------------------------------------------------=
