
     Program PWSCF v.7.3.1 starts on 23Mar2026 at 17:57:23 

     This program is part of the open-source Quantum ESPRESSO suite
     for quantum simulation of materials; please cite
         "P. Giannozzi et al., J. Phys.:Condens. Matter 21 395502 (2009);
         "P. Giannozzi et al., J. Phys.:Condens. Matter 29 465901 (2017);
         "P. Giannozzi et al., J. Chem. Phys. 152 154105 (2020);
          URL http://www.quantum-espresso.org", 
     in publications or presentations arising from this work. More details at
     http://www.quantum-espresso.org/quote

     Parallel version (MPI), running on   128 processors

     MPI processes distributed on     1 nodes
     242882 MiB available memory on the printing compute node when the environment starts

     Waiting for input...
     Reading input from standard input

     Current dimensions of program PWSCF are:
     Max number of different atomic species (ntypx) = 10
     Max number of k-points (npk) =  40000
     Max angular momentum in pseudopotentials (lmaxx) =  4

     K-points division:     npool     =       4
     R & G space division:  proc/nbgrp/npool/nimage =      32
     Subspace diagonalization in iterative solution of the eigenvalue problem:
     a serial algorithm will be used


     Parallelization info
     --------------------
     sticks:   dense  smooth     PW     G-vecs:    dense   smooth      PW
     Min         177     177     52                 7355     7355    1172
     Max         178     178     53                 7357     7357    1174
     Sum        5673    5673   1667               235391   235391   37537

     Using Slab Decomposition



     bravais-lattice index     =            5
     lattice parameter (alat)  =      14.6727  a.u.
     unit-cell volume          =    2040.8887 (a.u.)^3
     number of atoms/cell      =           36
     number of atomic types    =            2
     number of electrons       =        96.00
     number of Kohn-Sham states=           48
     kinetic-energy cutoff     =      90.0000  Ry
     charge density cutoff     =     360.0000  Ry
     scf convergence threshold =      1.0E-07
     mixing beta               =       0.7000
     number of iterations used =            8  plain     mixing
     Exchange-correlation=  SLA  PW   PBE  PBE
                           (   1   4   3   4   0   0   0)

     celldm(1)=  14.672664  celldm(2)=   0.000000  celldm(3)=   0.000000
     celldm(4)=  -0.392337  celldm(5)=   0.000000  celldm(6)=   0.000000

     crystal axes: (cart. coord. in units of alat)
               a(1) = (   0.834367  -0.481722   0.267909 )  
               a(2) = (   0.000000   0.963444   0.267909 )  
               a(3) = (  -0.834367  -0.481722   0.267909 )  

     reciprocal axes: (cart. coord. in units 2 pi/alat)
               b(1) = (  0.599257 -0.345981  1.244203 )  
               b(2) = (  0.000000  0.691962  1.244203 )  
               b(3) = ( -0.599257 -0.345981  1.244203 )  


     PseudoPot. # 1 for H  read from file:
     ./H.pbe-van_ak.UPF
     MD5 check sum: 077eb6d537518a38cb46c6de387227b7
     Pseudo is Ultrasoft, Zval =  1.0
     Generated by new atomic code, or converted to UPF format
     Using radial grid of  615 points,  1 beta functions with: 
                l(1) =   0
     Q(r) pseudized with  8 coefficients,  rinner =    0.800

     PseudoPot. # 2 for O  read from file:
     ./O.pbe-van_ak.UPF
     MD5 check sum: 78c19812648e8988a0fe644b0f25305e
     Pseudo is Ultrasoft, Zval =  6.0
     Generated by new atomic code, or converted to UPF format
     Using radial grid of  737 points,  4 beta functions with: 
                l(1) =   0
                l(2) =   0
                l(3) =   1
                l(4) =   1
     Q(r) pseudized with  8 coefficients,  rinner =    0.800   0.800   0.800


     atomic species   valence    mass     pseudopotential
     H                 1.00     1.00800     H ( 1.00)
     O                 6.00    16.00000     O ( 1.00)

      6 Sym. Ops., with inversion, found



   Cartesian axes

     site n.     atom                  positions (alat units)
         1        O      tau(   1) = (  -0.4910119  -0.5205722   0.3052394  )
         2        O      tau(   2) = (   0.4910119   0.5205722   0.4984877  )
         3        O      tau(   3) = (   0.6963347  -0.1649427   0.3052394  )
         4        O      tau(   4) = (  -0.6963347   0.1649427   0.4984877  )
         5        O      tau(   5) = (  -0.2053228   0.6855149   0.3052394  )
         6        O      tau(   6) = (   0.2053228  -0.6855149   0.4984877  )
         7        O      tau(   7) = (   0.1229870   0.3303028   0.4196306  )
         8        O      tau(   8) = (  -0.1229870  -0.3303028   0.3840965  )
         9        O      tau(   9) = (  -0.3475441  -0.0586415   0.4196306  )
        10        O      tau(  10) = (   0.3475441   0.0586415   0.3840965  )
        11        O      tau(  11) = (   0.2245571  -0.2716613   0.4196306  )
        12        O      tau(  12) = (  -0.2245571   0.2716612   0.3840965  )
        13        H      tau(  13) = (  -0.5446961  -0.4126715   0.2597134  )
        14        H      tau(  14) = (   0.5446961   0.4126715   0.5440137  )
        15        H      tau(  15) = (   0.6297321  -0.2653849   0.2597134  )
        16        H      tau(  16) = (  -0.6297321   0.2653849   0.5440137  )
        17        H      tau(  17) = (  -0.0850360   0.6780564   0.2597134  )
        18        H      tau(  18) = (   0.0850360  -0.6780564   0.5440137  )
        19        H      tau(  19) = (  -0.4726389  -0.4926041   0.4288765  )
        20        H      tau(  20) = (   0.4726389   0.4926042   0.3748506  )
        21        H      tau(  21) = (   0.6629272  -0.1630152   0.4288765  )
        22        H      tau(  22) = (  -0.6629272   0.1630152   0.3748506  )
        23        H      tau(  23) = (  -0.1902883   0.6556194   0.4288765  )
        24        H      tau(  24) = (   0.1902883  -0.6556194   0.3748506  )
        25        H      tau(  25) = (   0.2676988  -0.1507235   0.4151121  )
        26        H      tau(  26) = (  -0.2676988   0.1507234   0.3886151  )
        27        H      tau(  27) = (  -0.0033191   0.3071957   0.4151121  )
        28        H      tau(  28) = (   0.0033191  -0.3071957   0.3886151  )
        29        H      tau(  29) = (  -0.2643797  -0.1564722   0.4151121  )
        30        H      tau(  30) = (   0.2643797   0.1564723   0.3886151  )
        31        H      tau(  31) = (   0.3102941  -0.3416444   0.3555952  )
        32        H      tau(  32) = (  -0.3102941   0.3416444   0.4481319  )
        33        H      tau(  33) = (   0.1407257   0.4395448   0.3555952  )
        34        H      tau(  34) = (  -0.1407257  -0.4395448   0.4481319  )
        35        H      tau(  35) = (  -0.4510198  -0.0979003   0.3555952  )
        36        H      tau(  36) = (   0.4510198   0.0979003   0.4481319  )

     number of k points=    14
                       cart. coord. in units 2pi/alat
        k(    1) = (   0.0000000   0.0000000   0.0000000), wk =   0.0312500
        k(    2) = (  -0.1498141  -0.0864952   0.3110508), wk =   0.1875000
        k(    3) = (   0.2996283   0.1729905  -0.6221017), wk =   0.0937500
        k(    4) = (  -0.1498141   0.0864952   0.6221017), wk =   0.1875000
        k(    5) = (   0.2996283   0.3459809  -0.3110508), wk =   0.1875000
        k(    6) = (   0.1498141   0.2594857   0.0000000), wk =   0.1875000
        k(    7) = (   0.2996283  -0.1729905  -1.2442034), wk =   0.0937500
        k(    8) = (   0.0000000   0.0000000   0.9331525), wk =   0.0625000
        k(    9) = (   0.4494424   0.2594857   0.0000000), wk =   0.1875000
        k(   10) = (   0.2996283   0.1729905   0.3110508), wk =   0.1875000
        k(   11) = (   0.4494424  -0.2594857  -0.9331525), wk =   0.1875000
        k(   12) = (   0.2996283  -0.3459809  -0.6221017), wk =   0.1875000
        k(   13) = (   0.0000000   0.0000000  -1.8663050), wk =   0.0312500
        k(   14) = (   0.2996283  -0.3459809   0.3110508), wk =   0.1875000

     Dense  grid:   235391 G-vectors     FFT dimensions: (  90,  90,  90)

     Estimated max dynamical RAM per process >      15.42 MB

     Estimated total dynamical RAM >       1.76 GB

     Initial potential from superposition of free atoms

     starting charge      95.9998, renormalised to      96.0000
     Starting wfcs are   72 randomized atomic wfcs

     total cpu time spent up to now is        1.2 secs

     per-process dynamical memory:    19.6 Mb

     Self-consistent Calculation

     iteration #  1     ecut=    90.00 Ry     beta= 0.70
     Davidson diagonalization with overlap
     ethr =  1.00E-02,  avg # of iterations =  2.0

     total cpu time spent up to now is        2.1 secs

     total energy              =    -412.33897855 Ry
     estimated scf accuracy    <       3.93231897 Ry

     iteration #  2     ecut=    90.00 Ry     beta= 0.70
     Davidson diagonalization with overlap
     ethr =  4.10E-03,  avg # of iterations =  3.0

     total cpu time spent up to now is        3.1 secs

     total energy              =    -413.58719076 Ry
     estimated scf accuracy    <       2.34127480 Ry

     iteration #  3     ecut=    90.00 Ry     beta= 0.70
     Davidson diagonalization with overlap
     ethr =  2.44E-03,  avg # of iterations =  2.0

     total cpu time spent up to now is        3.9 secs

     total energy              =    -413.88629864 Ry
     estimated scf accuracy    <       0.09563325 Ry

     iteration #  4     ecut=    90.00 Ry     beta= 0.70
     Davidson diagonalization with overlap
     ethr =  9.96E-05,  avg # of iterations =  4.0

     total cpu time spent up to now is        5.1 secs

     total energy              =    -413.96027173 Ry
     estimated scf accuracy    <       0.11751749 Ry

     iteration #  5     ecut=    90.00 Ry     beta= 0.70
     Davidson diagonalization with overlap
     ethr =  9.96E-05,  avg # of iterations =  2.0

     total cpu time spent up to now is        5.8 secs

     total energy              =    -413.96468884 Ry
     estimated scf accuracy    <       0.01704903 Ry

     iteration #  6     ecut=    90.00 Ry     beta= 0.70
     Davidson diagonalization with overlap
     ethr =  1.78E-05,  avg # of iterations =  2.0

     total cpu time spent up to now is        6.6 secs

     total energy              =    -413.96422580 Ry
     estimated scf accuracy    <       0.00446498 Ry

     iteration #  7     ecut=    90.00 Ry     beta= 0.70
     Davidson diagonalization with overlap
     ethr =  4.65E-06,  avg # of iterations =  3.0

     total cpu time spent up to now is        7.5 secs

     total energy              =    -413.96668208 Ry
     estimated scf accuracy    <       0.00078837 Ry

     iteration #  8     ecut=    90.00 Ry     beta= 0.70
     Davidson diagonalization with overlap
     ethr =  8.21E-07,  avg # of iterations =  2.0

     total cpu time spent up to now is        8.2 secs

     total energy              =    -413.96628604 Ry
     estimated scf accuracy    <       0.00126197 Ry

     iteration #  9     ecut=    90.00 Ry     beta= 0.70
     Davidson diagonalization with overlap
     ethr =  8.21E-07,  avg # of iterations =  2.0

     total cpu time spent up to now is        8.9 secs

     total energy              =    -413.96624949 Ry
     estimated scf accuracy    <       0.00029052 Ry

     iteration # 10     ecut=    90.00 Ry     beta= 0.70
     Davidson diagonalization with overlap
     ethr =  3.03E-07,  avg # of iterations =  2.0

     total cpu time spent up to now is        9.8 secs

     total energy              =    -413.96630115 Ry
     estimated scf accuracy    <       0.00001248 Ry

     iteration # 11     ecut=    90.00 Ry     beta= 0.70
     Davidson diagonalization with overlap
     ethr =  1.30E-08,  avg # of iterations =  3.9

     total cpu time spent up to now is       10.7 secs

     End of self-consistent calculation

          k = 0.0000 0.0000 0.0000 ( 29363 PWs)   bands (ev):

   -20.8462 -20.3891 -20.3891 -20.1694 -20.1694 -20.1583 -20.1158 -20.1158
   -20.0877 -19.8028 -19.8028 -19.4834  -8.4015  -8.2802  -8.2604  -8.2604
    -8.1821  -8.1821  -7.8699  -7.8699  -7.8558  -7.8558  -7.8510  -7.7994
    -6.7259  -5.6077  -5.6077  -5.0702  -5.0702  -4.8090  -4.8090  -4.7549
    -4.5205  -3.8787  -3.8787  -3.1420  -2.7834  -2.7834  -2.6940  -2.5907
    -2.5907  -2.5306  -2.4597  -2.4495  -2.4495  -2.3655  -2.3275  -2.3275

          k =-0.1498-0.0865 0.3111 ( 29428 PWs)   bands (ev):

   -20.7739 -20.4233 -20.3798 -20.3103 -20.2749 -20.2067 -20.0733 -20.0159
   -19.9569 -19.8115 -19.7700 -19.5409  -8.3666  -8.3046  -8.2724  -8.2508
    -8.1792  -8.1369  -7.9384  -7.9001  -7.8690  -7.8122  -7.7731  -7.7515
    -6.5383  -5.7785  -5.6347  -5.3477  -5.1693  -4.9130  -4.6334  -4.5576
    -4.3559  -3.8828  -3.8115  -3.2890  -2.8644  -2.8067  -2.7151  -2.6593
    -2.6389  -2.5758  -2.5092  -2.4435  -2.4116  -2.3790  -2.3280  -2.3152

          k = 0.2996 0.1730-0.6221 ( 29458 PWs)   bands (ev):

   -20.6018 -20.5683 -20.4054 -20.3712 -20.2965 -20.2648 -20.0264 -19.9824
   -19.8632 -19.7950 -19.7130 -19.6571  -8.3227  -8.3151  -8.2713  -8.2577
    -8.1876  -8.1150  -7.9398  -7.9161  -7.8767  -7.8237  -7.7107  -7.6954
    -6.1678  -6.0579  -5.6657  -5.6260  -5.1423  -5.1015  -4.4931  -4.4455
    -3.9996  -3.9666  -3.7812  -3.5358  -2.9350  -2.8267  -2.7307  -2.7277
    -2.6645  -2.5794  -2.5560  -2.4785  -2.4489  -2.3665  -2.2976  -2.2940

          k =-0.1498 0.0865 0.6221 ( 29433 PWs)   bands (ev):

   -20.6321 -20.4806 -20.4706 -20.3535 -20.3261 -20.2582 -20.0221 -19.9396
   -19.8944 -19.7768 -19.7532 -19.6380  -8.3240  -8.2999  -8.2892  -8.2645
    -8.1752  -8.1086  -7.9370  -7.9209  -7.9129  -7.7657  -7.7320  -7.7023
    -6.2082  -5.9179  -5.8727  -5.4289  -5.2810  -5.0818  -4.5225  -4.2746
    -4.1925  -3.8692  -3.7834  -3.5574  -2.9238  -2.8487  -2.7339  -2.6939
    -2.6363  -2.6185  -2.5665  -2.4596  -2.4499  -2.3751  -2.3167  -2.2741

          k = 0.2996 0.3460-0.3111 ( 29427 PWs)   bands (ev):

   -20.6747 -20.5113 -20.4430 -20.3704 -20.2899 -20.2192 -20.0413 -19.9430
   -19.8513 -19.8366 -19.7305 -19.6257  -8.3357  -8.3262  -8.2511  -8.2415
    -8.1831  -8.1243  -8.0083  -7.9809  -7.9171  -7.7659  -7.7528  -7.7032
    -6.2535  -5.9067  -5.7122  -5.4671  -5.4340  -4.8871  -4.4742  -4.3274
    -4.2105  -3.9116  -3.7848  -3.4905  -2.8588  -2.8035  -2.7442  -2.6766
    -2.6327  -2.5613  -2.5298  -2.5067  -2.4281  -2.4162  -2.2961  -2.2450

          k = 0.1498 0.2595 0.0000 ( 29433 PWs)   bands (ev):

   -20.7917 -20.4620 -20.4068 -20.2883 -20.2331 -20.1611 -20.0912 -20.0236
   -19.9531 -19.8118 -19.7742 -19.5323  -8.3790  -8.3028  -8.2656  -8.2394
    -8.1706  -8.1611  -8.0029  -7.9516  -7.8799  -7.8145  -7.7888  -7.7573
    -6.5444  -5.6704  -5.6108  -5.3723  -5.3309  -4.7479  -4.6175  -4.4777
    -4.3967  -3.9082  -3.8697  -3.2382  -2.7837  -2.7632  -2.7318  -2.6411
    -2.5973  -2.5607  -2.4954  -2.4770  -2.4341  -2.3894  -2.2906  -2.2760

          k = 0.2996-0.1730-1.2442 ( 29414 PWs)   bands (ev):

   -20.6563 -20.6302 -20.4197 -20.3416 -20.2280 -20.1934 -20.0215 -20.0202
   -19.8592 -19.8424 -19.6774 -19.6386  -8.3465  -8.3192  -8.2561  -8.2374
    -8.1470  -8.1456  -8.0846  -8.0105  -7.9021  -7.8068  -7.7733  -7.7260
    -6.1077  -6.0883  -5.6509  -5.5783  -5.2388  -4.8762  -4.4392  -4.3719
    -4.1745  -4.0249  -3.6827  -3.4917  -2.7877  -2.7542  -2.7331  -2.6754
    -2.6057  -2.5573  -2.5448  -2.4752  -2.4676  -2.3961  -2.2562  -2.2432

          k = 0.0000 0.0000 0.9332 ( 29370 PWs)   bands (ev):

   -20.5584 -20.5584 -20.5183 -20.4385 -20.2496 -20.2496 -19.9602 -19.9602
   -19.8313 -19.7457 -19.7457 -19.7212  -8.3236  -8.3236  -8.2700  -8.2202
    -8.1713  -8.1713  -8.0419  -7.9630  -7.9630  -7.7202  -7.7202  -7.6873
    -5.9922  -5.9922  -5.9167  -5.6343  -5.1832  -5.1832  -4.2341  -4.2341
    -4.0957  -3.8545  -3.8545  -3.7301  -2.8114  -2.8114  -2.7136  -2.6816
    -2.6055  -2.6055  -2.5403  -2.4859  -2.4859  -2.3601  -2.3601  -2.2188

          k = 0.4494 0.2595 0.0000 ( 29428 PWs)   bands (ev):

   -20.6907 -20.5243 -20.5196 -20.3417 -20.1943 -20.1639 -20.0649 -20.0284
   -19.8661 -19.7812 -19.7364 -19.6170  -8.3449  -8.3095  -8.2827  -8.2064
    -8.1814  -8.1176  -8.1018  -7.9840  -7.9377  -7.7870  -7.7560  -7.7450
    -6.2368  -5.8100  -5.7707  -5.6390  -5.1990  -4.8700  -4.5086  -4.3988
    -4.0872  -3.9270  -3.8249  -3.4529  -2.7730  -2.7564  -2.7429  -2.6702
    -2.6290  -2.5705  -2.5274  -2.5013  -2.4268  -2.3722  -2.3051  -2.2227

          k = 0.2996 0.1730 0.3111 ( 29431 PWs)   bands (ev):

   -20.7231 -20.4690 -20.3924 -20.3703 -20.2773 -20.2186 -20.0416 -20.0033
   -19.9127 -19.8098 -19.7408 -19.5779  -8.3494  -8.3101  -8.2768  -8.2163
    -8.1909  -8.1034  -8.0101  -7.9000  -7.8719  -7.8523  -7.7924  -7.7311
    -6.3772  -5.7734  -5.7110  -5.3934  -5.3458  -4.8951  -4.5517  -4.4010
    -4.3550  -3.8609  -3.7991  -3.3534  -2.8853  -2.7928  -2.7491  -2.7132
    -2.6497  -2.5709  -2.5074  -2.4855  -2.4128  -2.3822  -2.3062  -2.2587

          k = 0.4494-0.2595-0.9332 ( 29435 PWs)   bands (ev):

   -20.5931 -20.5870 -20.4498 -20.4020 -20.2712 -20.1889 -20.0761 -19.9775
   -19.8376 -19.7911 -19.7353 -19.6266  -8.3286  -8.3059  -8.2802  -8.2057
    -8.1749  -8.0766  -8.0572  -7.9594  -7.8905  -7.8519  -7.7797  -7.7404
    -6.0873  -5.9292  -5.7585  -5.5775  -5.2980  -4.8805  -4.6413  -4.3491
    -4.0856  -3.8479  -3.8207  -3.4622  -2.8869  -2.8092  -2.7743  -2.7193
    -2.6873  -2.5969  -2.5015  -2.4664  -2.4169  -2.3886  -2.3045  -2.2153

          k = 0.2996-0.3460-0.6221 ( 29420 PWs)   bands (ev):

   -20.5675 -20.5303 -20.4372 -20.4270 -20.2973 -20.2855 -20.0046 -19.9835
   -19.8309 -19.8091 -19.7319 -19.6396  -8.3328  -8.2791  -8.2562  -8.2426
    -8.2135  -8.0677  -7.9671  -7.9449  -7.8700  -7.8330  -7.7467  -7.7360
    -6.0362  -6.0041  -5.7076  -5.6507  -5.1991  -5.1588  -4.4491  -4.3788
    -4.0430  -4.0133  -3.7136  -3.5217  -2.9547  -2.8260  -2.7803  -2.7642
    -2.6866  -2.6105  -2.4928  -2.4700  -2.4557  -2.3615  -2.3410  -2.2165

          k = 0.0000 0.0000-1.8663 ( 29412 PWs)   bands (ev):

   -20.5270 -20.4832 -20.4342 -20.4342 -20.3661 -20.3661 -19.9281 -19.9281
   -19.8620 -19.8620 -19.7321 -19.6206  -8.3348  -8.2363  -8.2363  -8.2334
    -8.2334  -8.0386  -7.9941  -7.9662  -7.8451  -7.8451  -7.7903  -7.7903
    -6.0383  -5.8797  -5.5301  -5.5301  -5.4218  -5.4218  -4.2203  -4.2203
    -4.1752  -4.1752  -3.6566  -3.5004  -2.9425  -2.8179  -2.8179  -2.8046
    -2.8046  -2.5710  -2.4668  -2.4092  -2.4092  -2.4001  -2.4001  -2.1727

          k = 0.2996-0.3460 0.3111 ( 29427 PWs)   bands (ev):

   -20.6741 -20.5193 -20.4195 -20.3892 -20.2876 -20.2199 -20.0364 -19.9363
   -19.8947 -19.7864 -19.7490 -19.6246  -8.3449  -8.3083  -8.2657  -8.2241
    -8.1944  -8.1266  -8.0225  -7.9674  -7.9136  -7.7679  -7.7447  -7.7102
    -6.2572  -5.8889  -5.7557  -5.4368  -5.3949  -4.9465  -4.5495  -4.2275
    -4.1227  -3.9715  -3.8448  -3.4633  -2.8687  -2.7751  -2.7519  -2.6776
    -2.6356  -2.5673  -2.5298  -2.5120  -2.4568  -2.3768  -2.3008  -2.2472

     highest occupied level (ev):    -2.1727

!    total energy              =    -413.96630659 Ry
     estimated scf accuracy    <       0.00000007 Ry

     The total energy is the sum of the following terms:
     one-electron contribution =    -289.76881711 Ry
     hartree contribution      =     179.46039036 Ry
     xc contribution           =    -101.57240414 Ry
     ewald contribution        =    -202.08547569 Ry

     convergence has been achieved in  11 iterations

     Forces acting on atoms (cartesian axes, Ry/au):

     atom    1 type  2   force =     0.00023501   -0.00284233   -0.00122834
     atom    2 type  2   force =    -0.00023501    0.00284233    0.00122834
     atom    3 type  2   force =     0.00234402    0.00162469   -0.00122834
     atom    4 type  2   force =    -0.00234402   -0.00162469    0.00122834
     atom    5 type  2   force =    -0.00257904    0.00121764   -0.00122834
     atom    6 type  2   force =     0.00257904   -0.00121764    0.00122834
     atom    7 type  2   force =     0.00255980   -0.00156283    0.00197818
     atom    8 type  2   force =    -0.00255980    0.00156283   -0.00197818
     atom    9 type  2   force =     0.00007355    0.00299827    0.00197818
     atom   10 type  2   force =    -0.00007355   -0.00299827   -0.00197818
     atom   11 type  2   force =    -0.00263335   -0.00143544    0.00197818
     atom   12 type  2   force =     0.00263335    0.00143544   -0.00197818
     atom   13 type  1   force =    -0.00099441    0.00217217   -0.00039336
     atom   14 type  1   force =     0.00099441   -0.00217217    0.00039336
     atom   15 type  1   force =    -0.00138395   -0.00194727   -0.00039336
     atom   16 type  1   force =     0.00138395    0.00194727    0.00039336
     atom   17 type  1   force =     0.00237836   -0.00022490   -0.00039336
     atom   18 type  1   force =    -0.00237836    0.00022490    0.00039336
     atom   19 type  1   force =     0.00114600    0.00027997    0.00293089
     atom   20 type  1   force =    -0.00114600   -0.00027997   -0.00293089
     atom   21 type  1   force =    -0.00081546    0.00085248    0.00293089
     atom   22 type  1   force =     0.00081546   -0.00085248   -0.00293089
     atom   23 type  1   force =    -0.00033054   -0.00113245    0.00293089
     atom   24 type  1   force =     0.00033054    0.00113245   -0.00293089
     atom   25 type  1   force =     0.00107382    0.00316368   -0.00010487
     atom   26 type  1   force =    -0.00107382   -0.00316368    0.00010487
     atom   27 type  1   force =    -0.00327673   -0.00065188   -0.00010487
     atom   28 type  1   force =     0.00327673    0.00065188    0.00010487
     atom   29 type  1   force =     0.00220291   -0.00251179   -0.00010487
     atom   30 type  1   force =    -0.00220291    0.00251179    0.00010487
     atom   31 type  1   force =     0.00127417   -0.00145619   -0.00128943
     atom   32 type  1   force =    -0.00127417    0.00145619    0.00128943
     atom   33 type  1   force =     0.00062401    0.00183155   -0.00128943
     atom   34 type  1   force =    -0.00062401   -0.00183155    0.00128943
     atom   35 type  1   force =    -0.00189818   -0.00037537   -0.00128943
     atom   36 type  1   force =     0.00189818    0.00037537    0.00128943

     Total force =     0.018162     Total SCF correction =     0.000633


     Computing stress (Cartesian axis) and pressure

          total   stress  (Ry/bohr**3)                   (kbar)     P=       -3.35
  -0.00003252  -0.00000000  -0.00000000           -4.78       -0.00       -0.00
   0.00000000  -0.00003252  -0.00000000            0.00       -4.78       -0.00
   0.00000000  -0.00000000  -0.00000325            0.00       -0.00       -0.48


     Writing all to output data dir ./iceII/iceII.save/ :
     XML data file, charge density, pseudopotentials, collected wavefunctions

     init_run     :      0.92s CPU      0.97s WALL (       1 calls)
     electrons    :      9.41s CPU      9.64s WALL (       1 calls)
     forces       :      0.13s CPU      0.14s WALL (       1 calls)
     stress       :      0.87s CPU      0.87s WALL (       1 calls)

     Called by init_run:
     wfcinit      :      0.34s CPU      0.35s WALL (       1 calls)
     potinit      :      0.03s CPU      0.06s WALL (       1 calls)
     hinit0       :      0.38s CPU      0.39s WALL (       1 calls)

     Called by electrons:
     c_bands      :      7.80s CPU      7.88s WALL (      11 calls)
     sum_band     :      1.15s CPU      1.19s WALL (      11 calls)
     v_of_rho     :      0.27s CPU      0.31s WALL (      12 calls)
     newd         :      0.10s CPU      0.11s WALL (      12 calls)
     mix_rho      :      0.05s CPU      0.05s WALL (      11 calls)

     Called by c_bands:
     init_us_2    :      0.14s CPU      0.14s WALL (     100 calls)
     cegterg      :      7.47s CPU      7.52s WALL (      44 calls)

     Called by *egterg:
     cdiaghg      :      0.57s CPU      0.57s WALL (     156 calls)
     h_psi        :      5.92s CPU      5.96s WALL (     160 calls)
     s_psi        :      0.25s CPU      0.25s WALL (     160 calls)
     g_psi        :      0.01s CPU      0.01s WALL (     112 calls)

     Called by h_psi:
     h_psi:calbec :      0.43s CPU      0.43s WALL (     160 calls)
     vloc_psi     :      5.20s CPU      5.23s WALL (     160 calls)
     add_vuspsi   :      0.26s CPU      0.26s WALL (     160 calls)

     General routines
     calbec       :      0.60s CPU      0.60s WALL (     224 calls)
     fft          :      0.56s CPU      0.59s WALL (     140 calls)
     ffts         :      0.02s CPU      0.02s WALL (      11 calls)
     fftw         :      5.46s CPU      5.50s WALL (   14782 calls)

     Parallel routines

     PWSCF        :     11.65s CPU     12.21s WALL


   This run was terminated on:  17:57:36  23Mar2026            

=------------------------------------------------------------------------------=
   JOB DONE.
=------------------------------------------------------------------------------=
