
     Program PWSCF v.7.3.1 starts on  4Feb2026 at 16: 1:50 

     This program is part of the open-source Quantum ESPRESSO suite
     for quantum simulation of materials; please cite
         "P. Giannozzi et al., J. Phys.:Condens. Matter 21 395502 (2009);
         "P. Giannozzi et al., J. Phys.:Condens. Matter 29 465901 (2017);
         "P. Giannozzi et al., J. Chem. Phys. 152 154105 (2020);
          URL http://www.quantum-espresso.org", 
     in publications or presentations arising from this work. More details at
     http://www.quantum-espresso.org/quote

     Parallel version (MPI), running on   128 processors

     MPI processes distributed on     1 nodes
     242261 MiB available memory on the printing compute node when the environment starts

     Waiting for input...
     Reading input from standard input
     Message from routine read_cards :
     DEPRECATED: no units specified in ATOMIC_POSITIONS card
     Message from routine read_cards :
     ATOMIC_POSITIONS: units set to alat

     Current dimensions of program PWSCF are:
     Max number of different atomic species (ntypx) = 10
     Max number of k-points (npk) =  40000
     Max angular momentum in pseudopotentials (lmaxx) =  4

     R & G space division:  proc/nbgrp/npool/nimage =     128
     WARNING: too many processors for an effective parallelization!
     wavefunctions fft division:  task group distribution
                                  #TG    x Z-proc =       8     16
     Subspace diagonalization in iterative solution of the eigenvalue problem:
     a serial algorithm will be used


     Parallelization info
     --------------------
     sticks:   dense  smooth     PW     G-vecs:    dense   smooth      PW
     Min          59      59     14                 3430     3430     425
     Max          60      60     15                 3439     3439     432
     Sum        7603    7603   1915               439479   439479   55009

     Using Pencil Decomposition



     bravais-lattice index     =            2
     lattice parameter (alat)  =      12.2300  a.u.
     unit-cell volume          =     457.3191 (a.u.)^3
     number of atoms/cell      =            2
     number of atomic types    =            1
     number of electrons       =        28.00
     number of Kohn-Sham states=           14
     kinetic-energy cutoff     =     370.0000  Ry
     charge density cutoff     =    1480.0000  Ry
     scf convergence threshold =      1.0E-07
     mixing beta               =       0.7000
     number of iterations used =            8  plain     mixing
     Exchange-correlation=  SLA  PW   GGX  GGC
                           (   1   4   2   2   0   0   0)

     celldm(1)=  12.230000  celldm(2)=   0.000000  celldm(3)=   0.000000
     celldm(4)=   0.000000  celldm(5)=   0.000000  celldm(6)=   0.000000

     crystal axes: (cart. coord. in units of alat)
               a(1) = (  -0.500000   0.000000   0.500000 )  
               a(2) = (   0.000000   0.500000   0.500000 )  
               a(3) = (  -0.500000   0.500000   0.000000 )  

     reciprocal axes: (cart. coord. in units 2 pi/alat)
               b(1) = ( -1.000000 -1.000000  1.000000 )  
               b(2) = (  1.000000  1.000000  1.000000 )  
               b(3) = ( -1.000000  1.000000 -1.000000 )  


     PseudoPot. # 1 for Sn read from file:
     ./Sn.pw91-n-van.UPF
     MD5 check sum: a38d2a872edd1a4efd76c0a1a38f7031
     Pseudo is Ultrasoft + core correction, Zval = 14.0
     Generated by new atomic code, or converted to UPF format
     Using radial grid of  891 points,  6 beta functions with: 
                l(1) =   0
                l(2) =   0
                l(3) =   1
                l(4) =   1
                l(5) =   2
                l(6) =   2
     Q(r) pseudized with  8 coefficients,  rinner =    1.100   1.100   1.100
                                                       1.100   1.100

     atomic species   valence    mass     pseudopotential
     Sn               14.00   118.70000     Sn( 1.00)

     48 Sym. Ops., with inversion, found (24 have fractional translation)



   Cartesian axes

     site n.     atom                  positions (alat units)
         1        Sn     tau(   1) = (   0.0000000   0.0000000   0.0000000  )
         2        Sn     tau(   2) = (   0.2500000   0.2500000   0.2500000  )

     number of k points=     1
                       cart. coord. in units 2pi/alat
        k(    1) = (   0.0000000   0.0000000   0.0000000), wk =   2.0000000

     Dense  grid:   439479 G-vectors     FFT dimensions: ( 108, 108, 108)

     Estimated max dynamical RAM per process >      15.49 MB

     Estimated total dynamical RAM >       1.94 GB

     Initial potential from superposition of free atoms

     starting charge      27.9964, renormalised to      28.0000
     Starting wfcs are   18 randomized atomic wfcs

     total cpu time spent up to now is        8.4 secs

     per-process dynamical memory:    14.9 Mb

     Self-consistent Calculation

     iteration #  1     ecut=   370.00 Ry     beta= 0.70
     Davidson diagonalization with overlap
     ethr =  1.00E-02,  avg # of iterations =  3.0

     Threshold (ethr) on eigenvalues was too large:
     Diagonalizing with lowered threshold

     Davidson diagonalization with overlap
     ethr =  2.67E-04,  avg # of iterations =  2.0

     total cpu time spent up to now is        8.8 secs

     total energy              =    -324.48079032 Ry
     estimated scf accuracy    <       0.06571107 Ry

     iteration #  2     ecut=   370.00 Ry     beta= 0.70
     Davidson diagonalization with overlap
     ethr =  2.35E-04,  avg # of iterations =  2.0

     total cpu time spent up to now is        8.9 secs

     total energy              =    -324.47931633 Ry
     estimated scf accuracy    <       0.00877763 Ry

     iteration #  3     ecut=   370.00 Ry     beta= 0.70
     Davidson diagonalization with overlap
     ethr =  3.13E-05,  avg # of iterations =  4.0

     total cpu time spent up to now is        9.0 secs

     total energy              =    -324.48431047 Ry
     estimated scf accuracy    <       0.00188079 Ry

     iteration #  4     ecut=   370.00 Ry     beta= 0.70
     Davidson diagonalization with overlap
     ethr =  6.72E-06,  avg # of iterations =  2.0

     total cpu time spent up to now is        9.1 secs

     total energy              =    -324.48767606 Ry
     estimated scf accuracy    <       0.00015272 Ry

     iteration #  5     ecut=   370.00 Ry     beta= 0.70
     Davidson diagonalization with overlap
     ethr =  5.45E-07,  avg # of iterations =  3.0

     total cpu time spent up to now is        9.2 secs

     total energy              =    -324.48870974 Ry
     estimated scf accuracy    <       0.00013260 Ry

     iteration #  6     ecut=   370.00 Ry     beta= 0.70
     Davidson diagonalization with overlap
     ethr =  4.74E-07,  avg # of iterations =  2.0

     total cpu time spent up to now is        9.3 secs

     total energy              =    -324.48873332 Ry
     estimated scf accuracy    <       0.00000146 Ry

     iteration #  7     ecut=   370.00 Ry     beta= 0.70
     Davidson diagonalization with overlap
     ethr =  5.20E-09,  avg # of iterations =  8.0

     total cpu time spent up to now is        9.4 secs

     total energy              =    -324.48873893 Ry
     estimated scf accuracy    <       0.00000021 Ry

     iteration #  8     ecut=   370.00 Ry     beta= 0.70
     Davidson diagonalization with overlap
     ethr =  7.45E-10,  avg # of iterations =  6.0

     total cpu time spent up to now is        9.5 secs

     End of self-consistent calculation

          k = 0.0000 0.0000 0.0000 ( 55009 PWs)   bands (ev):

   -12.0121 -12.0121 -12.0121 -11.9738 -11.9738 -11.6201 -11.6201 -11.6201
   -11.6181 -11.6181  -1.9844   8.2341   8.8198   8.8198

     highest occupied level (ev):     8.8198

!    total energy              =    -324.48873899 Ry
     estimated scf accuracy    <          1.8E-09 Ry

     The total energy is the sum of the following terms:
     one-electron contribution =    -152.51874756 Ry
     hartree contribution      =      96.28342954 Ry
     xc contribution           =     -95.59399061 Ry
     ewald contribution        =    -172.65943036 Ry

     convergence has been achieved in   8 iterations

     Writing all to output data dir ./alpha-sn-scf/alphatin.save/ :
     XML data file, charge density, pseudopotentials, collected wavefunctions

     init_run     :      0.37s CPU      0.61s WALL (       1 calls)
     electrons    :      0.98s CPU      1.63s WALL (       1 calls)

     Called by init_run:
     wfcinit      :      0.02s CPU      0.10s WALL (       1 calls)
     potinit      :      0.01s CPU      0.04s WALL (       1 calls)
     hinit0       :      0.16s CPU      0.24s WALL (       1 calls)

     Called by electrons:
     c_bands      :      0.32s CPU      0.44s WALL (       9 calls)
     sum_band     :      0.29s CPU      0.32s WALL (       9 calls)
     v_of_rho     :      0.11s CPU      0.14s WALL (       9 calls)
     newd         :      0.18s CPU      0.19s WALL (       9 calls)
     mix_rho      :      0.03s CPU      0.04s WALL (       9 calls)

     Called by c_bands:
     init_us_2    :      0.00s CPU      0.01s WALL (      19 calls)
     cegterg      :      0.31s CPU      0.42s WALL (       9 calls)

     Called by *egterg:
     cdiaghg      :      0.01s CPU      0.11s WALL (      40 calls)
     h_psi        :      0.29s CPU      0.37s WALL (      42 calls)
     s_psi        :      0.00s CPU      0.00s WALL (      42 calls)
     g_psi        :      0.00s CPU      0.00s WALL (      32 calls)

     Called by h_psi:
     h_psi:calbec :      0.01s CPU      0.05s WALL (      42 calls)
     vloc_psi     :      0.28s CPU      0.32s WALL (      42 calls)
     vloc_psi:tg_ :      0.00s CPU      0.00s WALL (      42 calls)
     add_vuspsi   :      0.00s CPU      0.00s WALL (      42 calls)

     General routines
     calbec       :      0.01s CPU      0.05s WALL (      51 calls)
     fft          :      0.21s CPU      0.29s WALL (     100 calls)
     ffts         :      0.01s CPU      0.01s WALL (       9 calls)
     fftw         :      0.30s CPU      0.35s WALL (     816 calls)

     Parallel routines
     fft_scatt_xy :      0.02s CPU      0.02s WALL (     925 calls)
     fft_scatt_yz :      0.30s CPU      0.34s WALL (     925 calls)
     fft_scatt_tg :      0.02s CPU      0.03s WALL (     816 calls)

     PWSCF        :      1.63s CPU     10.43s WALL


   This run was terminated on:  16: 2: 1   4Feb2026            

=------------------------------------------------------------------------------=
   JOB DONE.
=------------------------------------------------------------------------------=
