
     Program PWSCF v.7.3.1 starts on  4Feb2026 at 16: 3:29 

     This program is part of the open-source Quantum ESPRESSO suite
     for quantum simulation of materials; please cite
         "P. Giannozzi et al., J. Phys.:Condens. Matter 21 395502 (2009);
         "P. Giannozzi et al., J. Phys.:Condens. Matter 29 465901 (2017);
         "P. Giannozzi et al., J. Chem. Phys. 152 154105 (2020);
          URL http://www.quantum-espresso.org", 
     in publications or presentations arising from this work. More details at
     http://www.quantum-espresso.org/quote

     Parallel version (MPI), running on   128 processors

     MPI processes distributed on     1 nodes
     241319 MiB available memory on the printing compute node when the environment starts

     Waiting for input...
     Reading input from standard input
     Message from routine read_cards :
     DEPRECATED: no units specified in ATOMIC_POSITIONS card
     Message from routine read_cards :
     ATOMIC_POSITIONS: units set to alat

     Current dimensions of program PWSCF are:
     Max number of different atomic species (ntypx) = 10
     Max number of k-points (npk) =  40000
     Max angular momentum in pseudopotentials (lmaxx) =  4

     K-points division:     npool     =       4
     R & G space division:  proc/nbgrp/npool/nimage =      32
     Subspace diagonalization in iterative solution of the eigenvalue problem:
     a serial algorithm will be used


     Parallelization info
     --------------------
     sticks:   dense  smooth     PW     G-vecs:    dense   smooth      PW
     Min         237     237     64                13731    13731    1910
     Max         238     238     65                13737    13737    1914
     Sum        7603    7603   2053               439479   439479   61143

     Using Slab Decomposition



     bravais-lattice index     =            2
     lattice parameter (alat)  =      12.2300  a.u.
     unit-cell volume          =     457.3191 (a.u.)^3
     number of atoms/cell      =            2
     number of atomic types    =            1
     number of electrons       =        28.00
     number of Kohn-Sham states=           14
     kinetic-energy cutoff     =     370.0000  Ry
     charge density cutoff     =    1480.0000  Ry
     scf convergence threshold =      1.0E-07
     mixing beta               =       0.7000
     number of iterations used =            8  plain     mixing
     Exchange-correlation=  SLA  PW   GGX  GGC
                           (   1   4   2   2   0   0   0)

     celldm(1)=  12.230000  celldm(2)=   0.000000  celldm(3)=   0.000000
     celldm(4)=   0.000000  celldm(5)=   0.000000  celldm(6)=   0.000000

     crystal axes: (cart. coord. in units of alat)
               a(1) = (  -0.500000   0.000000   0.500000 )  
               a(2) = (   0.000000   0.500000   0.500000 )  
               a(3) = (  -0.500000   0.500000   0.000000 )  

     reciprocal axes: (cart. coord. in units 2 pi/alat)
               b(1) = ( -1.000000 -1.000000  1.000000 )  
               b(2) = (  1.000000  1.000000  1.000000 )  
               b(3) = ( -1.000000  1.000000 -1.000000 )  


     PseudoPot. # 1 for Sn read from file:
     ./Sn.pw91-n-van.UPF
     MD5 check sum: a38d2a872edd1a4efd76c0a1a38f7031
     Pseudo is Ultrasoft + core correction, Zval = 14.0
     Generated by new atomic code, or converted to UPF format
     Using radial grid of  891 points,  6 beta functions with: 
                l(1) =   0
                l(2) =   0
                l(3) =   1
                l(4) =   1
                l(5) =   2
                l(6) =   2
     Q(r) pseudized with  8 coefficients,  rinner =    1.100   1.100   1.100
                                                       1.100   1.100

     atomic species   valence    mass     pseudopotential
     Sn               14.00   118.70000     Sn( 1.00)

     48 Sym. Ops., with inversion, found (24 have fractional translation)



   Cartesian axes

     site n.     atom                  positions (alat units)
         1        Sn     tau(   1) = (   0.0000000   0.0000000   0.0000000  )
         2        Sn     tau(   2) = (   0.2500000   0.2500000   0.2500000  )

     number of k points=    47
                       cart. coord. in units 2pi/alat
        k(    1) = (   0.0000000   0.0000000   0.0000000), wk =   0.0020000
        k(    2) = (  -0.1000000   0.1000000  -0.1000000), wk =   0.0160000
        k(    3) = (  -0.2000000   0.2000000  -0.2000000), wk =   0.0160000
        k(    4) = (  -0.3000000   0.3000000  -0.3000000), wk =   0.0160000
        k(    5) = (  -0.4000000   0.4000000  -0.4000000), wk =   0.0160000
        k(    6) = (   0.5000000  -0.5000000   0.5000000), wk =   0.0080000
        k(    7) = (   0.0000000   0.2000000   0.0000000), wk =   0.0120000
        k(    8) = (  -0.1000000   0.3000000  -0.1000000), wk =   0.0480000
        k(    9) = (  -0.2000000   0.4000000  -0.2000000), wk =   0.0480000
        k(   10) = (  -0.3000000   0.5000000  -0.3000000), wk =   0.0480000
        k(   11) = (   0.6000000  -0.4000000   0.6000000), wk =   0.0480000
        k(   12) = (   0.5000000  -0.3000000   0.5000000), wk =   0.0480000
        k(   13) = (   0.4000000  -0.2000000   0.4000000), wk =   0.0480000
        k(   14) = (   0.3000000  -0.1000000   0.3000000), wk =   0.0480000
        k(   15) = (   0.2000000   0.0000000   0.2000000), wk =   0.0240000
        k(   16) = (   0.0000000   0.4000000   0.0000000), wk =   0.0120000
        k(   17) = (  -0.1000000   0.5000000  -0.1000000), wk =   0.0480000
        k(   18) = (  -0.2000000   0.6000000  -0.2000000), wk =   0.0480000
        k(   19) = (   0.7000000  -0.3000000   0.7000000), wk =   0.0480000
        k(   20) = (   0.6000000  -0.2000000   0.6000000), wk =   0.0480000
        k(   21) = (   0.5000000  -0.1000000   0.5000000), wk =   0.0480000
        k(   22) = (   0.4000000   0.0000000   0.4000000), wk =   0.0240000
        k(   23) = (   0.0000000   0.6000000   0.0000000), wk =   0.0120000
        k(   24) = (  -0.1000000   0.7000000  -0.1000000), wk =   0.0480000
        k(   25) = (   0.8000000  -0.2000000   0.8000000), wk =   0.0480000
        k(   26) = (   0.7000000  -0.1000000   0.7000000), wk =   0.0480000
        k(   27) = (   0.6000000  -0.0000000   0.6000000), wk =   0.0240000
        k(   28) = (   0.0000000   0.8000000   0.0000000), wk =   0.0120000
        k(   29) = (   0.9000000  -0.1000000   0.9000000), wk =   0.0480000
        k(   30) = (   0.8000000   0.0000000   0.8000000), wk =   0.0240000
        k(   31) = (   0.0000000  -1.0000000   0.0000000), wk =   0.0060000
        k(   32) = (  -0.2000000   0.4000000   0.0000000), wk =   0.0480000
        k(   33) = (  -0.3000000   0.5000000  -0.1000000), wk =   0.0960000
        k(   34) = (   0.6000000  -0.4000000   0.8000000), wk =   0.0960000
        k(   35) = (   0.5000000  -0.3000000   0.7000000), wk =   0.0480000
        k(   36) = (  -0.2000000   0.6000000   0.0000000), wk =   0.0480000
        k(   37) = (   0.7000000  -0.3000000   0.9000000), wk =   0.0960000
        k(   38) = (   0.6000000  -0.2000000   0.8000000), wk =   0.0960000
        k(   39) = (   0.5000000  -0.1000000   0.7000000), wk =   0.0960000
        k(   40) = (   0.4000000   0.0000000   0.6000000), wk =   0.0480000
        k(   41) = (   0.8000000  -0.2000000   1.0000000), wk =   0.0480000
        k(   42) = (   0.7000000  -0.1000000   0.9000000), wk =   0.0960000
        k(   43) = (   0.6000000   0.0000000   0.8000000), wk =   0.0480000
        k(   44) = (  -0.2000000  -1.0000000   0.0000000), wk =   0.0240000
        k(   45) = (   0.6000000  -0.2000000   1.0000000), wk =   0.0480000
        k(   46) = (   0.5000000  -0.1000000   0.9000000), wk =   0.0480000
        k(   47) = (  -0.4000000  -1.0000000   0.0000000), wk =   0.0240000

     Dense  grid:   439479 G-vectors     FFT dimensions: ( 108, 108, 108)

     Estimated max dynamical RAM per process >      27.72 MB

     Estimated total dynamical RAM >       3.15 GB

     Initial potential from superposition of free atoms

     starting charge      27.9964, renormalised to      28.0000
     Starting wfcs are   18 randomized atomic wfcs

     total cpu time spent up to now is        1.8 secs

     per-process dynamical memory:    26.3 Mb

     Self-consistent Calculation

     iteration #  1     ecut=   370.00 Ry     beta= 0.70
     Davidson diagonalization with overlap
     ethr =  1.00E-02,  avg # of iterations =  2.8

     Threshold (ethr) on eigenvalues was too large:
     Diagonalizing with lowered threshold

     Davidson diagonalization with overlap
     ethr =  6.27E-05,  avg # of iterations =  4.2

     total cpu time spent up to now is        4.2 secs

     total energy              =    -325.54044955 Ry
     estimated scf accuracy    <       0.02132617 Ry

     iteration #  2     ecut=   370.00 Ry     beta= 0.70
     Davidson diagonalization with overlap
     ethr =  7.62E-05,  avg # of iterations =  5.0

     total cpu time spent up to now is        5.8 secs

     total energy              =    -325.61655892 Ry
     estimated scf accuracy    <       0.03961965 Ry

     iteration #  3     ecut=   370.00 Ry     beta= 0.70
     Davidson diagonalization with overlap
     ethr =  7.62E-05,  avg # of iterations =  1.4

     total cpu time spent up to now is        6.8 secs

     total energy              =    -325.64530437 Ry
     estimated scf accuracy    <       0.01651834 Ry

     iteration #  4     ecut=   370.00 Ry     beta= 0.70
     Davidson diagonalization with overlap
     ethr =  5.90E-05,  avg # of iterations =  2.3

     total cpu time spent up to now is        7.9 secs

     total energy              =    -325.65111657 Ry
     estimated scf accuracy    <       0.00020541 Ry

     iteration #  5     ecut=   370.00 Ry     beta= 0.70
     Davidson diagonalization with overlap
     ethr =  7.34E-07,  avg # of iterations =  3.6

     total cpu time spent up to now is        9.1 secs

     total energy              =    -325.65115966 Ry
     estimated scf accuracy    <       0.00011945 Ry

     iteration #  6     ecut=   370.00 Ry     beta= 0.70
     Davidson diagonalization with overlap
     ethr =  4.27E-07,  avg # of iterations =  2.0

     total cpu time spent up to now is       10.2 secs

     total energy              =    -325.65118001 Ry
     estimated scf accuracy    <       0.00000080 Ry

     iteration #  7     ecut=   370.00 Ry     beta= 0.70
     Davidson diagonalization with overlap
     ethr =  2.86E-09,  avg # of iterations =  3.8

     total cpu time spent up to now is       11.4 secs

     total energy              =    -325.65118160 Ry
     estimated scf accuracy    <       0.00000037 Ry

     iteration #  8     ecut=   370.00 Ry     beta= 0.70
     Davidson diagonalization with overlap
     ethr =  1.31E-09,  avg # of iterations =  2.0

     total cpu time spent up to now is       12.4 secs

     End of self-consistent calculation

          k = 0.0000 0.0000 0.0000 ( 55009 PWs)   bands (ev):

   -13.7702 -13.7702 -13.7702 -13.7097 -13.7097 -13.3933 -13.3933 -13.3933
   -13.3842 -13.3842  -2.7365   7.2947   8.0260   8.0260

          k =-0.1000 0.1000-0.1000 ( 54976 PWs)   bands (ev):

   -13.7779 -13.7779 -13.7677 -13.6989 -13.6989 -13.4108 -13.4108 -13.3965
   -13.3686 -13.3686  -2.6389   6.1384   7.8284   7.8284

          k =-0.2000 0.2000-0.2000 ( 54973 PWs)   bands (ev):

   -13.7909 -13.7909 -13.7611 -13.6787 -13.6787 -13.4305 -13.4305 -13.4050
   -13.3533 -13.3533  -2.3522   4.6110   7.4485   7.4485

          k =-0.3000 0.3000-0.3000 ( 55003 PWs)   bands (ev):

   -13.8005 -13.8005 -13.7527 -13.6611 -13.6611 -13.4450 -13.4450 -13.4157
   -13.3430 -13.3430  -1.9030   3.2023   7.1077   7.1077

          k =-0.4000 0.4000-0.4000 ( 54980 PWs)   bands (ev):

   -13.8056 -13.8056 -13.7456 -13.6509 -13.6509 -13.4526 -13.4526 -13.4246
   -13.3375 -13.3375  -1.3836   2.0863   6.8860   6.8860

          k = 0.5000-0.5000 0.5000 ( 54920 PWs)   bands (ev):

   -13.8071 -13.8071 -13.7429 -13.6478 -13.6478 -13.4547 -13.4547 -13.4281
   -13.3358 -13.3358  -1.0991   1.6001   6.8099   6.8099

          k = 0.0000 0.2000 0.0000 ( 54993 PWs)   bands (ev):

   -13.7765 -13.7760 -13.7760 -13.7015 -13.6878 -13.4342 -13.3920 -13.3851
   -13.3851 -13.3621  -2.6060   6.0427   7.5024   7.5024

          k =-0.1000 0.3000-0.1000 ( 55026 PWs)   bands (ev):

   -13.7922 -13.7855 -13.7678 -13.6870 -13.6657 -13.4589 -13.4115 -13.3875
   -13.3673 -13.3498  -2.3808   4.9081   7.1001   7.1020

          k =-0.2000 0.4000-0.2000 ( 54996 PWs)   bands (ev):

   -13.8066 -13.7963 -13.7539 -13.6682 -13.6457 -13.4763 -13.4309 -13.4029
   -13.3519 -13.3355  -1.9806   3.5676   6.6507   6.7864

          k =-0.3000 0.5000-0.3000 ( 54961 PWs)   bands (ev):

   -13.8160 -13.8043 -13.7388 -13.6523 -13.6358 -13.4811 -13.4472 -13.4217
   -13.3407 -13.3258  -1.4650   2.3816   6.2725   6.6212

          k = 0.6000-0.4000 0.6000 ( 54941 PWs)   bands (ev):

   -13.8196 -13.8093 -13.7284 -13.6407 -13.6378 -13.4720 -13.4605 -13.4372
   -13.3332 -13.3226  -1.0462   1.6475   6.0322   6.6222

          k = 0.5000-0.3000 0.5000 ( 54943 PWs)   bands (ev):

   -13.8172 -13.8113 -13.7277 -13.6471 -13.6354 -13.4691 -13.4550 -13.4429
   -13.3297 -13.3265  -1.1506   1.8170   5.9570   6.7856

          k = 0.4000-0.2000 0.4000 ( 54963 PWs)   bands (ev):

   -13.8094 -13.8092 -13.7375 -13.6594 -13.6401 -13.4685 -13.4476 -13.4250
   -13.3375 -13.3309  -1.6446   2.7496   6.0670   7.0884

          k = 0.3000-0.1000 0.3000 ( 55020 PWs)   bands (ev):

   -13.8022 -13.7964 -13.7525 -13.6744 -13.6566 -13.4560 -13.4381 -13.4008
   -13.3549 -13.3379  -2.1331   3.9999   6.3894   7.4753

          k = 0.2000 0.0000 0.2000 ( 55017 PWs)   bands (ev):

   -13.7903 -13.7822 -13.7651 -13.6906 -13.6795 -13.4350 -13.4225 -13.3819
   -13.3765 -13.3508  -2.4776   5.2688   6.9947   7.8084

          k = 0.0000 0.4000 0.0000 ( 55061 PWs)   bands (ev):

   -13.7901 -13.7901 -13.7784 -13.6780 -13.6403 -13.4929 -13.4147 -13.3644
   -13.3644 -13.3573  -2.2169   4.5149   6.6855   6.6855

          k =-0.1000 0.5000-0.1000 ( 55024 PWs)   bands (ev):

   -13.8068 -13.7992 -13.7623 -13.6598 -13.6150 -13.5201 -13.4336 -13.3820
   -13.3503 -13.3377  -1.8708   3.5720   6.1922   6.3643

          k =-0.2000 0.6000-0.2000 ( 54940 PWs)   bands (ev):

   -13.8235 -13.8077 -13.7368 -13.6400 -13.6004 -13.5327 -13.4551 -13.4112
   -13.3370 -13.3182  -1.3798   2.5240   5.6306   6.2011

          k = 0.7000-0.3000 0.7000 ( 54941 PWs)   bands (ev):

   -13.8341 -13.8141 -13.7132 -13.6223 -13.6037 -13.5250 -13.4758 -13.4382
   -13.3272 -13.3064  -0.8805   1.6926   5.2057   6.2173

          k = 0.6000-0.2000 0.6000 ( 54961 PWs)   bands (ev):

   -13.8361 -13.8176 -13.7013 -13.6221 -13.6103 -13.5001 -13.4919 -13.4536
   -13.3217 -13.3049  -0.7890   1.5607   4.9932   6.4091

          k = 0.5000-0.1000 0.5000 ( 54963 PWs)   bands (ev):

   -13.8287 -13.8174 -13.7074 -13.6453 -13.6121 -13.4946 -13.4657 -13.4544
   -13.3213 -13.3148  -1.2261   2.2400   5.0494   6.7478

          k = 0.4000 0.0000 0.4000 ( 54967 PWs)   bands (ev):

   -13.8136 -13.8122 -13.7295 -13.6624 -13.6307 -13.4801 -13.4513 -13.4246
   -13.3346 -13.3267  -1.7399   3.1763   5.4769   7.1598

          k = 0.0000 0.6000 0.0000 ( 54962 PWs)   bands (ev):

   -13.8061 -13.8061 -13.7644 -13.6414 -13.5818 -13.5591 -13.4501 -13.3740
   -13.3403 -13.3403  -1.5776   3.0332   6.0188   6.0188

          k =-0.1000 0.7000-0.1000 ( 54962 PWs)   bands (ev):

   -13.8204 -13.8132 -13.7405 -13.6195 -13.5854 -13.5565 -13.4725 -13.4019
   -13.3294 -13.3213  -1.1230   2.2448   5.5393   5.8277

          k = 0.8000-0.2000 0.8000 ( 54944 PWs)   bands (ev):

   -13.8365 -13.8186 -13.7079 -13.5976 -13.5916 -13.5482 -13.4966 -13.4374
   -13.3209 -13.3027  -0.5884   1.4912   4.9369   5.8199

          k = 0.7000-0.1000 0.7000 ( 54956 PWs)   bands (ev):

   -13.8451 -13.8218 -13.6884 -13.5812 -13.5764 -13.5601 -13.5169 -13.4577
   -13.3162 -13.2936  -0.3287   1.1782   4.5444   5.9958

          k = 0.6000-0.0000 0.6000 ( 54974 PWs)   bands (ev):

   -13.8425 -13.8216 -13.6885 -13.6125 -13.5866 -13.5169 -13.5161 -13.4601
   -13.3162 -13.2977  -0.7067   1.6291   4.5355   6.3290

          k = 0.0000 0.8000 0.0000 ( 54930 PWs)   bands (ev):

   -13.8181 -13.8181 -13.7328 -13.6254 -13.5956 -13.5197 -13.4950 -13.4099
   -13.3218 -13.3218  -0.7035   1.6406   5.5977   5.5977

          k = 0.9000-0.1000 0.9000 ( 54951 PWs)   bands (ev):

   -13.8285 -13.8215 -13.7024 -13.6466 -13.5712 -13.5201 -13.4982 -13.4421
   -13.3164 -13.3095  -0.1632   0.9839   5.2053   5.5491

          k = 0.8000 0.0000 0.8000 ( 54980 PWs)   bands (ev):

   -13.8413 -13.8230 -13.6838 -13.6243 -13.5561 -13.5380 -13.5178 -13.4611
   -13.3144 -13.2965   0.1310   0.6931   4.6955   5.6887

          k = 0.0000-1.0000 0.0000 ( 54930 PWs)   bands (ev):

   -13.8225 -13.8225 -13.6852 -13.6852 -13.5451 -13.5451 -13.4603 -13.4603
   -13.3148 -13.3148   0.3808   0.3808   5.4544   5.4544

          k =-0.2000 0.4000 0.0000 ( 55036 PWs)   bands (ev):

   -13.8026 -13.7973 -13.7574 -13.6729 -13.6418 -13.4851 -13.4261 -13.3921
   -13.3555 -13.3385  -2.0961   4.0509   6.2097   7.0302

          k =-0.3000 0.5000-0.1000 ( 54952 PWs)   bands (ev):

   -13.8162 -13.8092 -13.7358 -13.6559 -13.6214 -13.5026 -13.4432 -13.4184
   -13.3365 -13.3256  -1.6486   2.9763   5.6499   6.7214

          k = 0.6000-0.4000 0.8000 ( 54923 PWs)   bands (ev):

   -13.8277 -13.8147 -13.7156 -13.6394 -13.6137 -13.5051 -13.4609 -13.4434
   -13.3267 -13.3140  -1.1250   1.9952   5.3713   6.4450

          k = 0.5000-0.3000 0.7000 ( 54928 PWs)   bands (ev):

   -13.8318 -13.8163 -13.7074 -13.6285 -13.6169 -13.4976 -13.4771 -13.4508
   -13.3241 -13.3093  -0.8312   1.5378   5.2885   6.3396

          k =-0.2000 0.6000 0.0000 ( 55011 PWs)   bands (ev):

   -13.8145 -13.8138 -13.7429 -13.6407 -13.5892 -13.5474 -13.4530 -13.4025
   -13.3316 -13.3274  -1.4725   2.7983   5.5965   6.1432

          k = 0.7000-0.3000 0.9000 ( 54971 PWs)   bands (ev):

   -13.8311 -13.8201 -13.7123 -13.6206 -13.5760 -13.5581 -13.4758 -13.4355
   -13.3207 -13.3094  -0.9528   1.9589   5.0945   5.9017

          k = 0.6000-0.2000 0.8000 ( 54953 PWs)   bands (ev):

   -13.8411 -13.8234 -13.6892 -13.6046 -13.5799 -13.5491 -13.4985 -13.4584
   -13.3157 -13.2982  -0.5178   1.3647   4.7682   5.8579

          k = 0.5000-0.1000 0.7000 ( 54938 PWs)   bands (ev):

   -13.8406 -13.8239 -13.6870 -13.6143 -13.5837 -13.5358 -13.4970 -13.4622
   -13.3147 -13.2994  -0.6563   1.5452   4.6851   6.0416

          k = 0.4000 0.0000 0.6000 ( 54944 PWs)   bands (ev):

   -13.8298 -13.8205 -13.7063 -13.6385 -13.5965 -13.5244 -13.4618 -13.4517
   -13.3185 -13.3132  -1.1693   2.2545   4.9468   6.3842

          k = 0.8000-0.2000 1.0000 ( 54967 PWs)   bands (ev):

   -13.8257 -13.8249 -13.7129 -13.6104 -13.5965 -13.5318 -13.4964 -13.4311
   -13.3144 -13.3140  -0.6283   1.5640   5.2541   5.5187

          k = 0.7000-0.1000 0.9000 ( 54969 PWs)   bands (ev):

   -13.8396 -13.8279 -13.6789 -13.6137 -13.5745 -13.5271 -13.5213 -13.4650
   -13.3101 -13.2985  -0.1068   0.9656   4.7916   5.4488

          k = 0.6000 0.0000 0.8000 ( 54971 PWs)   bands (ev):

   -13.8457 -13.8277 -13.6724 -13.5787 -13.5767 -13.5523 -13.5298 -13.4708
   -13.3100 -13.2926  -0.1493   1.0214   4.5091   5.6606

          k =-0.2000-1.0000 0.0000 ( 54958 PWs)   bands (ev):

   -13.8295 -13.8295 -13.6674 -13.6674 -13.5463 -13.5463 -13.4767 -13.4767
   -13.3080 -13.3080   0.4011   0.4011   5.2214   5.2214

          k = 0.6000-0.2000 1.0000 ( 54923 PWs)   bands (ev):

   -13.8390 -13.8310 -13.6770 -13.5984 -13.5807 -13.5508 -13.5049 -13.4681
   -13.3074 -13.3000  -0.4240   1.3401   4.7399   5.4959

          k = 0.5000-0.1000 0.9000 ( 54914 PWs)   bands (ev):

   -13.8436 -13.8335 -13.6584 -13.5919 -13.5769 -13.5457 -13.5248 -13.4828
   -13.3045 -13.2945  -0.0688   0.9504   4.6379   5.3122

          k =-0.4000-1.0000 0.0000 ( 54920 PWs)   bands (ev):

   -13.8389 -13.8389 -13.6339 -13.6339 -13.5520 -13.5520 -13.5045 -13.5045
   -13.2987 -13.2987   0.4350   0.4350   4.9163   4.9163

     highest occupied level (ev):     8.0260

!    total energy              =    -325.65118166 Ry
     estimated scf accuracy    <       0.00000003 Ry

     The total energy is the sum of the following terms:
     one-electron contribution =    -150.92284417 Ry
     hartree contribution      =      93.15527904 Ry
     xc contribution           =     -95.22418617 Ry
     ewald contribution        =    -172.65943036 Ry

     convergence has been achieved in   8 iterations

     Writing all to output data dir ./alpha-sn-scf/alphatin.save/ :
     XML data file, charge density, pseudopotentials, collected wavefunctions

     init_run     :      1.43s CPU      1.54s WALL (       1 calls)
     electrons    :     10.36s CPU     10.68s WALL (       1 calls)

     Called by init_run:
     wfcinit      :      0.41s CPU      0.44s WALL (       1 calls)
     potinit      :      0.06s CPU      0.08s WALL (       1 calls)
     hinit0       :      0.50s CPU      0.52s WALL (       1 calls)

     Called by electrons:
     c_bands      :      8.01s CPU      8.15s WALL (       9 calls)
     sum_band     :      1.71s CPU      1.74s WALL (       9 calls)
     v_of_rho     :      0.42s CPU      0.46s WALL (       9 calls)
     newd         :      0.18s CPU      0.22s WALL (       9 calls)
     mix_rho      :      0.06s CPU      0.06s WALL (       9 calls)

     Called by c_bands:
     init_us_2    :      0.19s CPU      0.20s WALL (     228 calls)
     cegterg      :      7.50s CPU      7.58s WALL (     108 calls)

     Called by *egterg:
     cdiaghg      :      0.17s CPU      0.17s WALL (     460 calls)
     h_psi        :      6.86s CPU      6.93s WALL (     484 calls)
     s_psi        :      0.13s CPU      0.13s WALL (     484 calls)
     g_psi        :      0.02s CPU      0.02s WALL (     364 calls)

     Called by h_psi:
     h_psi:calbec :      0.30s CPU      0.31s WALL (     484 calls)
     vloc_psi     :      6.36s CPU      6.42s WALL (     484 calls)
     add_vuspsi   :      0.14s CPU      0.15s WALL (     484 calls)

     General routines
     calbec       :      0.35s CPU      0.36s WALL (     592 calls)
     fft          :      0.67s CPU      0.72s WALL (     100 calls)
     ffts         :      0.03s CPU      0.03s WALL (       9 calls)
     fftw         :      6.66s CPU      6.71s WALL (    9542 calls)

     Parallel routines

     PWSCF        :     12.44s CPU     14.36s WALL


   This run was terminated on:  16: 3:44   4Feb2026            

=------------------------------------------------------------------------------=
   JOB DONE.
=------------------------------------------------------------------------------=
