
     Program PWSCF v.7.3.1 starts on  4Feb2026 at 16: 4:31 

     This program is part of the open-source Quantum ESPRESSO suite
     for quantum simulation of materials; please cite
         "P. Giannozzi et al., J. Phys.:Condens. Matter 21 395502 (2009);
         "P. Giannozzi et al., J. Phys.:Condens. Matter 29 465901 (2017);
         "P. Giannozzi et al., J. Chem. Phys. 152 154105 (2020);
          URL http://www.quantum-espresso.org", 
     in publications or presentations arising from this work. More details at
     http://www.quantum-espresso.org/quote

     Parallel version (MPI), running on   128 processors

     MPI processes distributed on     1 nodes
     240801 MiB available memory on the printing compute node when the environment starts

     Waiting for input...
     Reading input from standard input
     Message from routine read_cards :
     DEPRECATED: no units specified in ATOMIC_POSITIONS card
     Message from routine read_cards :
     ATOMIC_POSITIONS: units set to alat

     Current dimensions of program PWSCF are:
     Max number of different atomic species (ntypx) = 10
     Max number of k-points (npk) =  40000
     Max angular momentum in pseudopotentials (lmaxx) =  4

     K-points division:     npool     =       4
     R & G space division:  proc/nbgrp/npool/nimage =      32
     Subspace diagonalization in iterative solution of the eigenvalue problem:
     a serial algorithm will be used


     Parallelization info
     --------------------
     sticks:   dense  smooth     PW     G-vecs:    dense   smooth      PW
     Min         237     237     64                13731    13731    1910
     Max         238     238     65                13737    13737    1914
     Sum        7603    7603   2053               439479   439479   61143

     Using Slab Decomposition



     bravais-lattice index     =            2
     lattice parameter (alat)  =      12.2300  a.u.
     unit-cell volume          =     457.3191 (a.u.)^3
     number of atoms/cell      =            2
     number of atomic types    =            1
     number of electrons       =        28.00
     number of Kohn-Sham states=           14
     kinetic-energy cutoff     =     370.0000  Ry
     charge density cutoff     =    1480.0000  Ry
     scf convergence threshold =      1.0E-07
     mixing beta               =       0.7000
     number of iterations used =            8  plain     mixing
     Exchange-correlation=  SLA  PW   GGX  GGC
                           (   1   4   2   2   0   0   0)

     celldm(1)=  12.230000  celldm(2)=   0.000000  celldm(3)=   0.000000
     celldm(4)=   0.000000  celldm(5)=   0.000000  celldm(6)=   0.000000

     crystal axes: (cart. coord. in units of alat)
               a(1) = (  -0.500000   0.000000   0.500000 )  
               a(2) = (   0.000000   0.500000   0.500000 )  
               a(3) = (  -0.500000   0.500000   0.000000 )  

     reciprocal axes: (cart. coord. in units 2 pi/alat)
               b(1) = ( -1.000000 -1.000000  1.000000 )  
               b(2) = (  1.000000  1.000000  1.000000 )  
               b(3) = ( -1.000000  1.000000 -1.000000 )  


     PseudoPot. # 1 for Sn read from file:
     ./Sn.pw91-n-van.UPF
     MD5 check sum: a38d2a872edd1a4efd76c0a1a38f7031
     Pseudo is Ultrasoft + core correction, Zval = 14.0
     Generated by new atomic code, or converted to UPF format
     Using radial grid of  891 points,  6 beta functions with: 
                l(1) =   0
                l(2) =   0
                l(3) =   1
                l(4) =   1
                l(5) =   2
                l(6) =   2
     Q(r) pseudized with  8 coefficients,  rinner =    1.100   1.100   1.100
                                                       1.100   1.100

     atomic species   valence    mass     pseudopotential
     Sn               14.00   118.70000     Sn( 1.00)

     48 Sym. Ops., with inversion, found (24 have fractional translation)



   Cartesian axes

     site n.     atom                  positions (alat units)
         1        Sn     tau(   1) = (   0.0000000   0.0000000   0.0000000  )
         2        Sn     tau(   2) = (   0.2500000   0.2500000   0.2500000  )

     number of k points=    84
                       cart. coord. in units 2pi/alat
        k(    1) = (   0.0000000   0.0000000   0.0000000), wk =   0.0009103
        k(    2) = (  -0.0769231   0.0769231  -0.0769231), wk =   0.0072827
        k(    3) = (  -0.1538462   0.1538462  -0.1538462), wk =   0.0072827
        k(    4) = (  -0.2307692   0.2307692  -0.2307692), wk =   0.0072827
        k(    5) = (  -0.3076923   0.3076923  -0.3076923), wk =   0.0072827
        k(    6) = (  -0.3846154   0.3846154  -0.3846154), wk =   0.0072827
        k(    7) = (  -0.4615385   0.4615385  -0.4615385), wk =   0.0072827
        k(    8) = (   0.0000000   0.1538462   0.0000000), wk =   0.0054620
        k(    9) = (  -0.0769231   0.2307692  -0.0769231), wk =   0.0218480
        k(   10) = (  -0.1538462   0.3076923  -0.1538462), wk =   0.0218480
        k(   11) = (  -0.2307692   0.3846154  -0.2307692), wk =   0.0218480
        k(   12) = (  -0.3076923   0.4615385  -0.3076923), wk =   0.0218480
        k(   13) = (  -0.3846154   0.5384615  -0.3846154), wk =   0.0218480
        k(   14) = (   0.5384615  -0.3846154   0.5384615), wk =   0.0218480
        k(   15) = (   0.4615385  -0.3076923   0.4615385), wk =   0.0218480
        k(   16) = (   0.3846154  -0.2307692   0.3846154), wk =   0.0218480
        k(   17) = (   0.3076923  -0.1538462   0.3076923), wk =   0.0218480
        k(   18) = (   0.2307692  -0.0769231   0.2307692), wk =   0.0218480
        k(   19) = (   0.1538462   0.0000000   0.1538462), wk =   0.0109240
        k(   20) = (   0.0000000   0.3076923   0.0000000), wk =   0.0054620
        k(   21) = (  -0.0769231   0.3846154  -0.0769231), wk =   0.0218480
        k(   22) = (  -0.1538462   0.4615385  -0.1538462), wk =   0.0218480
        k(   23) = (  -0.2307692   0.5384615  -0.2307692), wk =   0.0218480
        k(   24) = (  -0.3076923   0.6153846  -0.3076923), wk =   0.0218480
        k(   25) = (   0.6153846  -0.3076923   0.6153846), wk =   0.0218480
        k(   26) = (   0.5384615  -0.2307692   0.5384615), wk =   0.0218480
        k(   27) = (   0.4615385  -0.1538462   0.4615385), wk =   0.0218480
        k(   28) = (   0.3846154  -0.0769231   0.3846154), wk =   0.0218480
        k(   29) = (   0.3076923   0.0000000   0.3076923), wk =   0.0109240
        k(   30) = (   0.0000000   0.4615385   0.0000000), wk =   0.0054620
        k(   31) = (  -0.0769231   0.5384615  -0.0769231), wk =   0.0218480
        k(   32) = (  -0.1538462   0.6153846  -0.1538462), wk =   0.0218480
        k(   33) = (  -0.2307692   0.6923077  -0.2307692), wk =   0.0218480
        k(   34) = (   0.6923077  -0.2307692   0.6923077), wk =   0.0218480
        k(   35) = (   0.6153846  -0.1538462   0.6153846), wk =   0.0218480
        k(   36) = (   0.5384615  -0.0769231   0.5384615), wk =   0.0218480
        k(   37) = (   0.4615385   0.0000000   0.4615385), wk =   0.0109240
        k(   38) = (   0.0000000   0.6153846   0.0000000), wk =   0.0054620
        k(   39) = (  -0.0769231   0.6923077  -0.0769231), wk =   0.0218480
        k(   40) = (  -0.1538462   0.7692308  -0.1538462), wk =   0.0218480
        k(   41) = (   0.7692308  -0.1538462   0.7692308), wk =   0.0218480
        k(   42) = (   0.6923077  -0.0769231   0.6923077), wk =   0.0218480
        k(   43) = (   0.6153846   0.0000000   0.6153846), wk =   0.0109240
        k(   44) = (   0.0000000   0.7692308   0.0000000), wk =   0.0054620
        k(   45) = (  -0.0769231   0.8461538  -0.0769231), wk =   0.0218480
        k(   46) = (   0.8461538  -0.0769231   0.8461538), wk =   0.0218480
        k(   47) = (   0.7692308   0.0000000   0.7692308), wk =   0.0109240
        k(   48) = (   0.0000000   0.9230769   0.0000000), wk =   0.0054620
        k(   49) = (   0.9230769   0.0000000   0.9230769), wk =   0.0109240
        k(   50) = (  -0.1538462   0.3076923   0.0000000), wk =   0.0218480
        k(   51) = (  -0.2307692   0.3846154  -0.0769231), wk =   0.0436959
        k(   52) = (  -0.3076923   0.4615385  -0.1538462), wk =   0.0436959
        k(   53) = (  -0.3846154   0.5384615  -0.2307692), wk =   0.0436959
        k(   54) = (   0.5384615  -0.3846154   0.6923077), wk =   0.0436959
        k(   55) = (  -0.1538462   0.4615385   0.0000000), wk =   0.0218480
        k(   56) = (  -0.2307692   0.5384615  -0.0769231), wk =   0.0436959
        k(   57) = (  -0.3076923   0.6153846  -0.1538462), wk =   0.0436959
        k(   58) = (   0.6153846  -0.3076923   0.7692308), wk =   0.0436959
        k(   59) = (   0.5384615  -0.2307692   0.6923077), wk =   0.0436959
        k(   60) = (   0.4615385  -0.1538462   0.6153846), wk =   0.0436959
        k(   61) = (   0.3846154  -0.0769231   0.5384615), wk =   0.0436959
        k(   62) = (   0.3076923   0.0000000   0.4615385), wk =   0.0218480
        k(   63) = (  -0.1538462   0.6153846   0.0000000), wk =   0.0218480
        k(   64) = (  -0.2307692   0.6923077  -0.0769231), wk =   0.0436959
        k(   65) = (   0.6923077  -0.2307692   0.8461538), wk =   0.0436959
        k(   66) = (   0.6153846  -0.1538462   0.7692308), wk =   0.0436959
        k(   67) = (   0.5384615  -0.0769231   0.6923077), wk =   0.0436959
        k(   68) = (   0.4615385   0.0000000   0.6153846), wk =   0.0218480
        k(   69) = (  -0.1538462   0.7692308   0.0000000), wk =   0.0218480
        k(   70) = (   0.7692308  -0.1538462   0.9230769), wk =   0.0436959
        k(   71) = (   0.6923077  -0.0769231   0.8461538), wk =   0.0436959
        k(   72) = (   0.6153846   0.0000000   0.7692308), wk =   0.0218480
        k(   73) = (   0.8461538  -0.0769231   1.0000000), wk =   0.0218480
        k(   74) = (   0.7692308   0.0000000   0.9230769), wk =   0.0218480
        k(   75) = (  -0.3076923   0.6153846   0.0000000), wk =   0.0218480
        k(   76) = (   0.6153846  -0.3076923   0.9230769), wk =   0.0436959
        k(   77) = (   0.5384615  -0.2307692   0.8461538), wk =   0.0436959
        k(   78) = (   0.6923077  -0.2307692   1.0000000), wk =   0.0218480
        k(   79) = (   0.6153846  -0.1538462   0.9230769), wk =   0.0436959
        k(   80) = (   0.5384615  -0.0769231   0.8461538), wk =   0.0436959
        k(   81) = (   0.4615385   0.0000000   0.7692308), wk =   0.0218480
        k(   82) = (   0.6923077  -0.0769231   1.0000000), wk =   0.0218480
        k(   83) = (   0.6153846   0.0000000   0.9230769), wk =   0.0218480
        k(   84) = (   0.5384615  -0.0769231   1.0000000), wk =   0.0218480

     Dense  grid:   439479 G-vectors     FFT dimensions: ( 108, 108, 108)

     Estimated max dynamical RAM per process >      31.02 MB

     Estimated total dynamical RAM >       3.56 GB

     Initial potential from superposition of free atoms

     starting charge      27.9964, renormalised to      28.0000
     Starting wfcs are   18 randomized atomic wfcs

     total cpu time spent up to now is        2.2 secs

     per-process dynamical memory:    28.5 Mb

     Self-consistent Calculation

     iteration #  1     ecut=   370.00 Ry     beta= 0.70
     Davidson diagonalization with overlap
     ethr =  1.00E-02,  avg # of iterations =  3.0

     Threshold (ethr) on eigenvalues was too large:
     Diagonalizing with lowered threshold

     Davidson diagonalization with overlap
     ethr =  6.41E-05,  avg # of iterations =  4.1

     total cpu time spent up to now is        6.3 secs

     total energy              =    -325.54065831 Ry
     estimated scf accuracy    <       0.02135752 Ry

     iteration #  2     ecut=   370.00 Ry     beta= 0.70
     Davidson diagonalization with overlap
     ethr =  7.63E-05,  avg # of iterations =  5.0

     total cpu time spent up to now is        9.0 secs

     total energy              =    -325.61627642 Ry
     estimated scf accuracy    <       0.03965040 Ry

     iteration #  3     ecut=   370.00 Ry     beta= 0.70
     Davidson diagonalization with overlap
     ethr =  7.63E-05,  avg # of iterations =  1.3

     total cpu time spent up to now is       10.6 secs

     total energy              =    -325.64495849 Ry
     estimated scf accuracy    <       0.01648984 Ry

     iteration #  4     ecut=   370.00 Ry     beta= 0.70
     Davidson diagonalization with overlap
     ethr =  5.89E-05,  avg # of iterations =  2.3

     total cpu time spent up to now is       12.5 secs

     total energy              =    -325.65132195 Ry
     estimated scf accuracy    <       0.00018175 Ry

     iteration #  5     ecut=   370.00 Ry     beta= 0.70
     Davidson diagonalization with overlap
     ethr =  6.49E-07,  avg # of iterations =  3.8

     total cpu time spent up to now is       14.5 secs

     total energy              =    -325.65134854 Ry
     estimated scf accuracy    <       0.00013024 Ry

     iteration #  6     ecut=   370.00 Ry     beta= 0.70
     Davidson diagonalization with overlap
     ethr =  4.65E-07,  avg # of iterations =  2.0

     total cpu time spent up to now is       16.3 secs

     total energy              =    -325.65136953 Ry
     estimated scf accuracy    <       0.00000076 Ry

     iteration #  7     ecut=   370.00 Ry     beta= 0.70
     Davidson diagonalization with overlap
     ethr =  2.71E-09,  avg # of iterations =  4.0

     total cpu time spent up to now is       18.3 secs

     total energy              =    -325.65137138 Ry
     estimated scf accuracy    <       0.00000044 Ry

     iteration #  8     ecut=   370.00 Ry     beta= 0.70
     Davidson diagonalization with overlap
     ethr =  1.58E-09,  avg # of iterations =  2.0

     total cpu time spent up to now is       20.1 secs

     End of self-consistent calculation

          k = 0.0000 0.0000 0.0000 ( 55009 PWs)   bands (ev):

   -13.7711 -13.7711 -13.7711 -13.7105 -13.7105 -13.3942 -13.3942 -13.3942
   -13.3851 -13.3851  -2.7373   7.2938   8.0252   8.0252

          k =-0.0769 0.0769-0.0769 ( 54976 PWs)   bands (ev):

   -13.7761 -13.7761 -13.7696 -13.7038 -13.7038 -13.4069 -13.4069 -13.3961
   -13.3736 -13.3736  -2.6794   6.4823   7.9014   7.9014

          k =-0.1538 0.1538-0.1538 ( 54988 PWs)   bands (ev):

   -13.7860 -13.7860 -13.7655 -13.6891 -13.6891 -13.4227 -13.4227 -13.4015
   -13.3606 -13.3606  -2.5078   5.3115   7.6271   7.6271

          k =-0.2308 0.2308-0.2308 ( 55012 PWs)   bands (ev):

   -13.7952 -13.7952 -13.7595 -13.6735 -13.6735 -13.4365 -13.4365 -13.4091
   -13.3504 -13.3504  -2.2298   4.1564   7.3333   7.3333

          k =-0.3077 0.3077-0.3077 ( 55015 PWs)   bands (ev):

   -13.8020 -13.8020 -13.7530 -13.6609 -13.6609 -13.4467 -13.4467 -13.4174
   -13.3433 -13.3433  -1.8643   3.1027   7.0852   7.0852

          k =-0.3846 0.3846-0.3846 ( 54968 PWs)   bands (ev):

   -13.8060 -13.8060 -13.7474 -13.6528 -13.6528 -13.4527 -13.4527 -13.4244
   -13.3389 -13.3389  -1.4605   2.2283   6.9103   6.9103

          k =-0.4615 0.4615-0.4615 ( 54911 PWs)   bands (ev):

   -13.8078 -13.8078 -13.7442 -13.6491 -13.6491 -13.4553 -13.4553 -13.4285
   -13.3370 -13.3370  -1.1488   1.6782   6.8205   6.8205

          k = 0.0000 0.1538 0.0000 ( 54981 PWs)   bands (ev):

   -13.7756 -13.7746 -13.7746 -13.7057 -13.6969 -13.4233 -13.3897 -13.3893
   -13.3893 -13.3671  -2.6600   6.3927   7.6822   7.6822

          k =-0.0769 0.2308-0.0769 ( 55002 PWs)   bands (ev):

   -13.7862 -13.7812 -13.7705 -13.6960 -13.6815 -13.4418 -13.4059 -13.3896
   -13.3739 -13.3572  -2.5258   5.5267   7.3749   7.4179

          k =-0.1538 0.3077-0.1538 ( 55009 PWs)   bands (ev):

   -13.7977 -13.7903 -13.7627 -13.6816 -13.6645 -13.4577 -13.4214 -13.3975
   -13.3609 -13.3461  -2.2821   4.4510   7.0841   7.0992

          k =-0.2308 0.3846-0.2308 ( 54985 PWs)   bands (ev):

   -13.8070 -13.7982 -13.7530 -13.6676 -13.6508 -13.4685 -13.4349 -13.4093
   -13.3506 -13.3368  -1.9425   3.3996   6.7786   6.8591

          k =-0.3077 0.4615-0.3077 ( 54954 PWs)   bands (ev):

   -13.8131 -13.8041 -13.7434 -13.6561 -13.6429 -13.4723 -13.4462 -13.4218
   -13.3428 -13.3307  -1.5422   2.4762   6.5118   6.7213

          k =-0.3846 0.5385-0.3846 ( 54924 PWs)   bands (ev):

   -13.8160 -13.8080 -13.7361 -13.6475 -13.6416 -13.4688 -13.4553 -13.4324
   -13.3372 -13.3280  -1.1762   1.8042   6.3232   6.6788

          k = 0.5385-0.3846 0.5385 ( 54933 PWs)   bands (ev):

   -13.8159 -13.8102 -13.7333 -13.6452 -13.6422 -13.4622 -13.4603 -13.4385
   -13.3336 -13.3289  -1.0524   1.6035   6.2249   6.7324

          k = 0.4615-0.3077 0.4615 ( 54949 PWs)   bands (ev):

   -13.8128 -13.8106 -13.7359 -13.6518 -13.6411 -13.4658 -13.4522 -13.4355
   -13.3333 -13.3325  -1.2849   1.9908   6.2246   6.8772

          k = 0.3846-0.2308 0.3846 ( 54962 PWs)   bands (ev):

   -13.8085 -13.8070 -13.7433 -13.6607 -13.6458 -13.4640 -13.4470 -13.4226
   -13.3411 -13.3342  -1.6796   2.7658   6.3278   7.1018

          k = 0.3077-0.1538 0.3077 ( 55007 PWs)   bands (ev):

   -13.8034 -13.7985 -13.7530 -13.6721 -13.6572 -13.4558 -13.4396 -13.4070
   -13.3523 -13.3391  -2.0658   3.7392   6.5398   7.3846

          k = 0.2308-0.0769 0.2308 ( 54987 PWs)   bands (ev):

   -13.7952 -13.7880 -13.7625 -13.6854 -13.6734 -13.4421 -13.4286 -13.3927
   -13.3664 -13.3475  -2.3755   4.7987   6.8703   7.6811

          k = 0.1538 0.0000 0.1538 ( 54981 PWs)   bands (ev):

   -13.7849 -13.7783 -13.7690 -13.6981 -13.6907 -13.4250 -13.4152 -13.3842
   -13.3802 -13.3592  -2.5834   5.8056   7.3464   7.8978

          k = 0.0000 0.3077 0.0000 ( 55029 PWs)   bands (ev):

   -13.7839 -13.7839 -13.7801 -13.6915 -13.6650 -13.4653 -13.4033 -13.3759
   -13.3759 -13.3577  -2.4290   5.2168   7.0546   7.0546

          k =-0.0769 0.3846-0.0769 ( 55040 PWs)   bands (ev):

   -13.7967 -13.7910 -13.7714 -13.6794 -13.6461 -13.4864 -13.4168 -13.3790
   -13.3643 -13.3487  -2.2206   4.4576   6.7062   6.7602

          k =-0.1538 0.4615-0.1538 ( 55028 PWs)   bands (ev):

   -13.8100 -13.7987 -13.7570 -13.6648 -13.6298 -13.5019 -13.4326 -13.3945
   -13.3523 -13.3347  -1.9105   3.5462   6.3036   6.5385

          k =-0.2308 0.5385-0.2308 ( 54972 PWs)   bands (ev):

   -13.8206 -13.8054 -13.7405 -13.6506 -13.6204 -13.5087 -13.4479 -13.4135
   -13.3421 -13.3230  -1.5233   2.6596   5.9326   6.4111

          k =-0.3077 0.6154-0.3077 ( 54944 PWs)   bands (ev):

   -13.8276 -13.8106 -13.7254 -13.6381 -13.6201 -13.5048 -13.4621 -13.4318
   -13.3342 -13.3154  -1.1261   1.9313   5.6428   6.3868

          k = 0.6154-0.3077 0.6154 ( 54951 PWs)   bands (ev):

   -13.8302 -13.8142 -13.7153 -13.6282 -13.6281 -13.4913 -13.4746 -13.4456
   -13.3286 -13.3130  -0.8931   1.5647   5.4559   6.4662

          k = 0.5385-0.2308 0.5385 ( 54949 PWs)   bands (ev):

   -13.8281 -13.8159 -13.7135 -13.6405 -13.6230 -13.4829 -13.4707 -13.4530
   -13.3257 -13.3163  -1.0251   1.7689   5.3867   6.6423

          k = 0.4615-0.1538 0.4615 ( 54970 PWs)   bands (ev):

   -13.8216 -13.8152 -13.7211 -13.6533 -13.6255 -13.4839 -13.4542 -13.4460
   -13.3259 -13.3253  -1.3966   2.4086   5.4529   6.8996

          k = 0.3846-0.0769 0.3846 ( 54976 PWs)   bands (ev):

   -13.8114 -13.8111 -13.7355 -13.6648 -13.6368 -13.4759 -13.4497 -13.4208
   -13.3394 -13.3296  -1.7968   3.2368   5.6855   7.2071

          k = 0.3077 0.0000 0.3077 ( 55003 PWs)   bands (ev):

   -13.8044 -13.7985 -13.7513 -13.6758 -13.6543 -13.4608 -13.4407 -13.3994
   -13.3565 -13.3369  -2.1342   4.0821   6.1419   7.5042

          k = 0.0000 0.4615 0.0000 ( 55041 PWs)   bands (ev):

   -13.7961 -13.7961 -13.7769 -13.6688 -13.6240 -13.5137 -13.4252 -13.3611
   -13.3578 -13.3578  -2.0471   4.0512   6.4570   6.4570

          k =-0.0769 0.5385-0.0769 ( 55003 PWs)   bands (ev):

   -13.8079 -13.8027 -13.7642 -13.6541 -13.6036 -13.5358 -13.4401 -13.3793
   -13.3475 -13.3392  -1.7681   3.3818   6.0945   6.2250

          k =-0.1538 0.6154-0.1538 ( 54976 PWs)   bands (ev):

   -13.8218 -13.8091 -13.7434 -13.6383 -13.5897 -13.5489 -13.4571 -13.4035
   -13.3376 -13.3221  -1.4007   2.6348   5.6338   6.0890

          k =-0.2308 0.6923-0.2308 ( 54950 PWs)   bands (ev):

   -13.8331 -13.8143 -13.7214 -13.6230 -13.5875 -13.5488 -13.4743 -13.4281
   -13.3293 -13.3091  -0.9909   1.9426   5.2187   6.0598

          k = 0.6923-0.2308 0.6923 ( 54950 PWs)   bands (ev):

   -13.8398 -13.8182 -13.7041 -13.6097 -13.5962 -13.5369 -13.4904 -13.4472
   -13.3234 -13.3018  -0.6724   1.4813   4.9200   6.1390

          k = 0.6154-0.1538 0.6154 ( 54956 PWs)   bands (ev):

   -13.8408 -13.8204 -13.6961 -13.6142 -13.6013 -13.5145 -13.5021 -13.4569
   -13.3201 -13.3013  -0.6949   1.5143   4.7729   6.3201

          k = 0.5385-0.0769 0.5385 ( 54937 PWs)   bands (ev):

   -13.8357 -13.8202 -13.6993 -13.6362 -13.6034 -13.5036 -13.4846 -13.4582
   -13.3199 -13.3082  -1.0323   1.9991   4.8141   6.5863

          k = 0.4615 0.0000 0.4615 ( 54955 PWs)   bands (ev):

   -13.8252 -13.8172 -13.7143 -13.6536 -13.6170 -13.4933 -13.4596 -13.4468
   -13.3231 -13.3218  -1.4387   2.6365   5.0993   6.9039

          k = 0.0000 0.6154 0.0000 ( 54982 PWs)   bands (ev):

   -13.8082 -13.8082 -13.7635 -13.6390 -13.5780 -13.5651 -13.4541 -13.3770
   -13.3395 -13.3395  -1.5192   2.9216   5.9764   5.9764

          k =-0.0769 0.6923-0.0769 ( 54981 PWs)   bands (ev):

   -13.8182 -13.8135 -13.7463 -13.6220 -13.5867 -13.5574 -13.4713 -13.3972
   -13.3312 -13.3258  -1.1752   2.3281   5.6396   5.8218

          k =-0.1538 0.7692-0.1538 ( 54934 PWs)   bands (ev):

   -13.8313 -13.8180 -13.7208 -13.6048 -13.5972 -13.5459 -13.4898 -13.4252
   -13.3241 -13.3103  -0.7661   1.7271   5.1658   5.7748

          k = 0.7692-0.1538 0.7692 ( 54967 PWs)   bands (ev):

   -13.8417 -13.8213 -13.6983 -13.5917 -13.5888 -13.5493 -13.5082 -13.4491
   -13.3191 -13.2988  -0.3879   1.2493   4.7500   5.8387

          k = 0.6923-0.0769 0.6923 ( 54940 PWs)   bands (ev):

   -13.8466 -13.8231 -13.6875 -13.5787 -13.5769 -13.5613 -13.5214 -13.4601
   -13.3165 -13.2939  -0.3155   1.1691   4.5035   6.0084

          k = 0.6154 0.0000 0.6154 ( 54968 PWs)   bands (ev):

   -13.8446 -13.8228 -13.6882 -13.6069 -13.5845 -13.5259 -13.5191 -13.4614
   -13.3168 -13.2970  -0.6277   1.5343   4.5023   6.2684

          k = 0.0000 0.7692 0.0000 ( 54966 PWs)   bands (ev):

   -13.8176 -13.8176 -13.7397 -13.6164 -13.6039 -13.5302 -13.4885 -13.4041
   -13.3249 -13.3249  -0.8531   1.8465   5.6442   5.6442

          k =-0.0769 0.8462-0.0769 ( 54947 PWs)   bands (ev):

   -13.8254 -13.8209 -13.7182 -13.6356 -13.5853 -13.5110 -13.5075 -13.4273
   -13.3197 -13.3152  -0.4527   1.3216   5.3615   5.5730

          k = 0.8462-0.0769 0.8462 ( 54958 PWs)   bands (ev):

   -13.8365 -13.8231 -13.6929 -13.6376 -13.5674 -13.5269 -13.5075 -13.4537
   -13.3164 -13.3033  -0.0375   0.8583   4.9278   5.6138

          k = 0.7692 0.0000 0.7692 ( 54974 PWs)   bands (ev):

   -13.8447 -13.8239 -13.6845 -13.6094 -13.5605 -13.5364 -13.5333 -13.4621
   -13.3153 -13.2950   0.0385   0.7957   4.5876   5.7634

          k = 0.0000 0.9231 0.0000 ( 54938 PWs)   bands (ev):

   -13.8227 -13.8227 -13.7061 -13.6643 -13.5656 -13.5264 -13.4833 -13.4404
   -13.3168 -13.3168  -0.0599   0.8460   5.4750   5.4750

          k = 0.9231 0.0000 0.9231 ( 54944 PWs)   bands (ev):

   -13.8279 -13.8235 -13.6858 -13.6751 -13.5476 -13.5449 -13.4716 -13.4614
   -13.3156 -13.3114   0.3466   0.4262   5.2681   5.4890

          k =-0.1538 0.3077 0.0000 ( 55002 PWs)   bands (ev):

   -13.7949 -13.7880 -13.7666 -13.6864 -13.6643 -13.4616 -13.4167 -13.3845
   -13.3705 -13.3480  -2.3549   4.8308   6.7325   7.3488

          k =-0.2308 0.3846-0.0769 ( 55029 PWs)   bands (ev):

   -13.8051 -13.7982 -13.7549 -13.6733 -13.6467 -13.4780 -13.4305 -13.3987
   -13.3549 -13.3376  -2.0778   3.9271   6.2505   7.1313

          k =-0.3077 0.4615-0.1538 ( 54965 PWs)   bands (ev):

   -13.8146 -13.8064 -13.7406 -13.6604 -13.6334 -13.4881 -13.4424 -13.4178
   -13.3418 -13.3289  -1.7128   2.9966   5.9370   6.8697

          k =-0.3846 0.5385-0.2308 ( 54964 PWs)   bands (ev):

   -13.8218 -13.8113 -13.7277 -13.6488 -13.6275 -13.4897 -13.4532 -13.4360
   -13.3334 -13.3220  -1.3073   2.1806   5.7502   6.6568

          k = 0.5385-0.3846 0.6923 ( 54942 PWs)   bands (ev):

   -13.8257 -13.8135 -13.7200 -13.6391 -13.6290 -13.4832 -13.4657 -13.4456
   -13.3297 -13.3181  -0.9908   1.6508   5.6637   6.5394

          k =-0.1538 0.4615 0.0000 ( 55043 PWs)   bands (ev):

   -13.8043 -13.8006 -13.7622 -13.6667 -13.6264 -13.5081 -13.4295 -13.3861
   -13.3523 -13.3405  -1.9776   3.8091   6.1562   6.6401

          k =-0.2308 0.5385-0.0769 ( 54981 PWs)   bands (ev):

   -13.8163 -13.8089 -13.7443 -13.6524 -13.6101 -13.5235 -13.4448 -13.4063
   -13.3392 -13.3278  -1.6387   3.0369   5.7050   6.4303

          k =-0.3077 0.6154-0.1538 ( 54957 PWs)   bands (ev):

   -13.8277 -13.8142 -13.7244 -13.6382 -13.6017 -13.5290 -13.4606 -13.4288
   -13.3303 -13.3154  -1.2364   2.2741   5.3741   6.2499

          k = 0.6154-0.3077 0.7692 ( 54952 PWs)   bands (ev):

   -13.8350 -13.8178 -13.7083 -13.6255 -13.6035 -13.5232 -13.4768 -13.4464
   -13.3247 -13.3073  -0.8630   1.6778   5.1484   6.1781

          k = 0.5385-0.2308 0.6923 ( 54960 PWs)   bands (ev):

   -13.8371 -13.8197 -13.7007 -13.6220 -13.6076 -13.5117 -13.4870 -13.4552
   -13.3218 -13.3053  -0.7391   1.4997   5.0300   6.2338

          k = 0.4615-0.1538 0.6154 ( 54957 PWs)   bands (ev):

   -13.8335 -13.8196 -13.7042 -13.6349 -13.6062 -13.5104 -13.4728 -13.4558
   -13.3217 -13.3099  -0.9867   1.8656   5.0387   6.4049

          k = 0.3846-0.0769 0.5385 ( 54960 PWs)   bands (ev):

   -13.8247 -13.8172 -13.7182 -13.6495 -13.6126 -13.5074 -13.4524 -13.4440
   -13.3252 -13.3205  -1.3877   2.5318   5.2104   6.6603

          k = 0.3077 0.0000 0.4615 ( 54983 PWs)   bands (ev):

   -13.8123 -13.8119 -13.7375 -13.6621 -13.6277 -13.4956 -13.4424 -13.4177
   -13.3385 -13.3292  -1.7720   3.2666   5.5994   6.9406

          k =-0.1538 0.6154 0.0000 ( 54965 PWs)   bands (ev):

   -13.8139 -13.8129 -13.7498 -13.6387 -13.5830 -13.5578 -13.4557 -13.3951
   -13.3342 -13.3307  -1.4578   2.7874   5.7057   6.0418

          k =-0.2308 0.6923-0.0769 ( 54969 PWs)   bands (ev):

   -13.8270 -13.8184 -13.7262 -13.6225 -13.5740 -13.5658 -13.4733 -13.4210
   -13.3252 -13.3158  -1.0685   2.1449   5.2870   5.8696

          k = 0.6923-0.2308 0.8462 ( 54941 PWs)   bands (ev):

   -13.8381 -13.8220 -13.7028 -13.6072 -13.5775 -13.5596 -13.4918 -13.4457
   -13.3195 -13.3032  -0.6624   1.5685   4.9161   5.8129

          k = 0.6154-0.1538 0.7692 ( 54944 PWs)   bands (ev):

   -13.8439 -13.8242 -13.6881 -13.5975 -13.5782 -13.5538 -13.5073 -13.4603
   -13.3162 -13.2969  -0.4294   1.2733   4.6667   5.8891

          k = 0.5385-0.0769 0.6923 ( 54970 PWs)   bands (ev):

   -13.8433 -13.8245 -13.6863 -13.6097 -13.5827 -13.5370 -13.5065 -13.4633
   -13.3155 -13.2983  -0.6025   1.4912   4.5958   6.0815

          k = 0.4615 0.0000 0.6154 ( 54956 PWs)   bands (ev):

   -13.8363 -13.8225 -13.6971 -13.6327 -13.5935 -13.5240 -13.4785 -13.4594
   -13.3178 -13.3073  -0.9932   1.9996   4.7597   6.3585

          k =-0.1538 0.7692 0.0000 ( 54959 PWs)   bands (ev):

   -13.8224 -13.8222 -13.7270 -13.6074 -13.6043 -13.5373 -13.4894 -13.4180
   -13.3199 -13.3196  -0.8048   1.7891   5.4130   5.6084

          k = 0.7692-0.1538 0.9231 ( 54976 PWs)   bands (ev):

   -13.8343 -13.8253 -13.6997 -13.6166 -13.5867 -13.5268 -13.5088 -13.4465
   -13.3152 -13.3061  -0.3849   1.2656   5.0227   5.5218

          k = 0.6923-0.0769 0.8462 ( 54950 PWs)   bands (ev):

   -13.8436 -13.8269 -13.6804 -13.6056 -13.5719 -13.5362 -13.5263 -13.4656
   -13.3128 -13.2962  -0.0692   0.9196   4.6551   5.5985

          k = 0.6154 0.0000 0.7692 ( 54955 PWs)   bands (ev):

   -13.8470 -13.8267 -13.6781 -13.5788 -13.5728 -13.5595 -13.5290 -13.4678
   -13.3128 -13.2933  -0.2138   1.0827   4.4809   5.7949

          k = 0.8462-0.0769 1.0000 ( 54979 PWs)   bands (ev):

   -13.8273 -13.8272 -13.6945 -13.6539 -13.5663 -13.5271 -13.4925 -13.4517
   -13.3124 -13.3123  -0.0325   0.8401   5.2941   5.3579

          k = 0.7692 0.0000 0.9231 ( 54963 PWs)   bands (ev):

   -13.8369 -13.8278 -13.6751 -13.6476 -13.5519 -13.5436 -13.4971 -13.4709
   -13.3115 -13.3025   0.2838   0.5307   4.9318   5.4055

          k =-0.3077 0.6154 0.0000 ( 54963 PWs)   bands (ev):

   -13.8242 -13.8205 -13.7219 -13.6383 -13.5919 -13.5403 -13.4601 -13.4308
   -13.3214 -13.3213  -1.2778   2.4437   5.1991   6.2054

          k = 0.6154-0.3077 0.9231 ( 54948 PWs)   bands (ev):

   -13.8354 -13.8246 -13.6993 -13.6230 -13.5808 -13.5484 -13.4796 -13.4533
   -13.3167 -13.3071  -0.8683   1.8385   4.8873   5.9642

          k = 0.5385-0.2308 0.8462 ( 54955 PWs)   bands (ev):

   -13.8418 -13.8263 -13.6852 -13.6095 -13.5800 -13.5467 -13.4991 -13.4645
   -13.3144 -13.2994  -0.5318   1.3888   4.7459   5.8192

          k = 0.6923-0.2308 1.0000 ( 54945 PWs)   bands (ev):

   -13.8329 -13.8287 -13.6992 -13.6060 -13.5861 -13.5522 -13.4926 -13.4484
   -13.3121 -13.3089  -0.6666   1.6225   4.9784   5.5828

          k = 0.6154-0.1538 0.9231 ( 54921 PWs)   bands (ev):

   -13.8415 -13.8318 -13.6744 -13.5941 -13.5869 -13.5451 -13.5136 -13.4713
   -13.3084 -13.2988  -0.2709   1.1586   4.7382   5.4179

          k = 0.5385-0.0769 0.8462 ( 54922 PWs)   bands (ev):

   -13.8451 -13.8321 -13.6659 -13.5894 -13.5761 -13.5523 -13.5239 -13.4782
   -13.3077 -13.2949  -0.1513   1.0283   4.5959   5.4563

          k = 0.4615 0.0000 0.7692 ( 54911 PWs)   bands (ev):

   -13.8425 -13.8301 -13.6765 -13.6031 -13.5665 -13.5615 -13.5073 -13.4705
   -13.3099 -13.2985  -0.4592   1.3721   4.6268   5.6614

          k = 0.6923-0.0769 1.0000 ( 54930 PWs)   bands (ev):

   -13.8365 -13.8347 -13.6681 -13.6296 -13.5689 -13.5301 -13.5125 -13.4766
   -13.3049 -13.3032   0.0399   0.8133   4.9598   5.1598

          k = 0.6154 0.0000 0.9231 ( 54941 PWs)   bands (ev):

   -13.8431 -13.8350 -13.6540 -13.6173 -13.5608 -13.5439 -13.5215 -13.4885
   -13.3045 -13.2964   0.2168   0.6475   4.7189   5.1932

          k = 0.5385-0.0769 1.0000 ( 54948 PWs)   bands (ev):

   -13.8429 -13.8381 -13.6467 -13.6089 -13.5711 -13.5387 -13.5263 -13.4941
   -13.3015 -13.2967   0.1322   0.7492   4.7306   5.0839

     highest occupied level (ev):     8.0252

!    total energy              =    -325.65137145 Ry
     estimated scf accuracy    <       0.00000003 Ry

     The total energy is the sum of the following terms:
     one-electron contribution =    -150.92112097 Ry
     hartree contribution      =      93.15315923 Ry
     xc contribution           =     -95.22397935 Ry
     ewald contribution        =    -172.65943036 Ry

     convergence has been achieved in   8 iterations

     Writing all to output data dir ./alpha-sn-scf/alphatin.save/ :
     XML data file, charge density, pseudopotentials, collected wavefunctions

     init_run     :      1.80s CPU      1.90s WALL (       1 calls)
     electrons    :     17.60s CPU     18.06s WALL (       1 calls)

     Called by init_run:
     wfcinit      :      0.78s CPU      0.82s WALL (       1 calls)
     potinit      :      0.05s CPU      0.07s WALL (       1 calls)
     hinit0       :      0.51s CPU      0.53s WALL (       1 calls)

     Called by electrons:
     c_bands      :     14.21s CPU     14.42s WALL (       9 calls)
     sum_band     :      2.72s CPU      2.78s WALL (       9 calls)
     v_of_rho     :      0.42s CPU      0.46s WALL (       9 calls)
     newd         :      0.19s CPU      0.21s WALL (       9 calls)
     mix_rho      :      0.06s CPU      0.06s WALL (       9 calls)

     Called by c_bands:
     init_us_2    :      0.34s CPU      0.35s WALL (     399 calls)
     cegterg      :     13.41s CPU     13.54s WALL (     189 calls)

     Called by *egterg:
     cdiaghg      :      0.30s CPU      0.31s WALL (     824 calls)
     h_psi        :     12.25s CPU     12.38s WALL (     866 calls)
     s_psi        :      0.23s CPU      0.23s WALL (     866 calls)
     g_psi        :      0.03s CPU      0.03s WALL (     656 calls)

     Called by h_psi:
     h_psi:calbec :      0.53s CPU      0.54s WALL (     866 calls)
     vloc_psi     :     11.38s CPU     11.50s WALL (     866 calls)
     add_vuspsi   :      0.26s CPU      0.26s WALL (     866 calls)

     General routines
     calbec       :      0.62s CPU      0.63s WALL (    1055 calls)
     fft          :      0.68s CPU      0.72s WALL (     100 calls)
     ffts         :      0.02s CPU      0.03s WALL (       9 calls)
     fftw         :     11.86s CPU     11.98s WALL (   16814 calls)

     Parallel routines

     PWSCF        :     20.07s CPU     23.62s WALL


   This run was terminated on:  16: 4:54   4Feb2026            

=------------------------------------------------------------------------------=
   JOB DONE.
=------------------------------------------------------------------------------=
