
     Program PWSCF v.7.3.1 starts on  4Feb2026 at 16: 6: 5 

     This program is part of the open-source Quantum ESPRESSO suite
     for quantum simulation of materials; please cite
         "P. Giannozzi et al., J. Phys.:Condens. Matter 21 395502 (2009);
         "P. Giannozzi et al., J. Phys.:Condens. Matter 29 465901 (2017);
         "P. Giannozzi et al., J. Chem. Phys. 152 154105 (2020);
          URL http://www.quantum-espresso.org", 
     in publications or presentations arising from this work. More details at
     http://www.quantum-espresso.org/quote

     Parallel version (MPI), running on   128 processors

     MPI processes distributed on     1 nodes
     240198 MiB available memory on the printing compute node when the environment starts

     Waiting for input...
     Reading input from standard input
     Message from routine read_cards :
     DEPRECATED: no units specified in ATOMIC_POSITIONS card
     Message from routine read_cards :
     ATOMIC_POSITIONS: units set to alat

     Current dimensions of program PWSCF are:
     Max number of different atomic species (ntypx) = 10
     Max number of k-points (npk) =  40000
     Max angular momentum in pseudopotentials (lmaxx) =  4

     K-points division:     npool     =       4
     R & G space division:  proc/nbgrp/npool/nimage =      32
     Subspace diagonalization in iterative solution of the eigenvalue problem:
     a serial algorithm will be used


     Parallelization info
     --------------------
     sticks:   dense  smooth     PW     G-vecs:    dense   smooth      PW
     Min         237     237     64                13731    13731    1910
     Max         238     238     65                13737    13737    1914
     Sum        7603    7603   2053               439479   439479   61143

     Using Slab Decomposition



     bravais-lattice index     =            2
     lattice parameter (alat)  =      12.2300  a.u.
     unit-cell volume          =     457.3191 (a.u.)^3
     number of atoms/cell      =            2
     number of atomic types    =            1
     number of electrons       =        28.00
     number of Kohn-Sham states=           14
     kinetic-energy cutoff     =     370.0000  Ry
     charge density cutoff     =    1480.0000  Ry
     scf convergence threshold =      1.0E-07
     mixing beta               =       0.7000
     number of iterations used =            8  plain     mixing
     Exchange-correlation=  SLA  PW   GGX  GGC
                           (   1   4   2   2   0   0   0)

     celldm(1)=  12.230000  celldm(2)=   0.000000  celldm(3)=   0.000000
     celldm(4)=   0.000000  celldm(5)=   0.000000  celldm(6)=   0.000000

     crystal axes: (cart. coord. in units of alat)
               a(1) = (  -0.500000   0.000000   0.500000 )  
               a(2) = (   0.000000   0.500000   0.500000 )  
               a(3) = (  -0.500000   0.500000   0.000000 )  

     reciprocal axes: (cart. coord. in units 2 pi/alat)
               b(1) = ( -1.000000 -1.000000  1.000000 )  
               b(2) = (  1.000000  1.000000  1.000000 )  
               b(3) = ( -1.000000  1.000000 -1.000000 )  


     PseudoPot. # 1 for Sn read from file:
     ./Sn.pw91-n-van.UPF
     MD5 check sum: a38d2a872edd1a4efd76c0a1a38f7031
     Pseudo is Ultrasoft + core correction, Zval = 14.0
     Generated by new atomic code, or converted to UPF format
     Using radial grid of  891 points,  6 beta functions with: 
                l(1) =   0
                l(2) =   0
                l(3) =   1
                l(4) =   1
                l(5) =   2
                l(6) =   2
     Q(r) pseudized with  8 coefficients,  rinner =    1.100   1.100   1.100
                                                       1.100   1.100

     atomic species   valence    mass     pseudopotential
     Sn               14.00   118.70000     Sn( 1.00)

     48 Sym. Ops., with inversion, found (24 have fractional translation)



   Cartesian axes

     site n.     atom                  positions (alat units)
         1        Sn     tau(   1) = (   0.0000000   0.0000000   0.0000000  )
         2        Sn     tau(   2) = (   0.2500000   0.2500000   0.2500000  )

     number of k points=   145

     Number of k-points >= 100: set verbosity='high' to print them.

     Dense  grid:   439479 G-vectors     FFT dimensions: ( 108, 108, 108)

     Estimated max dynamical RAM per process >      36.88 MB

     Estimated total dynamical RAM >       4.30 GB

     Initial potential from superposition of free atoms

     starting charge      27.9964, renormalised to      28.0000
     Starting wfcs are   18 randomized atomic wfcs

     total cpu time spent up to now is        2.7 secs

     per-process dynamical memory:    34.5 Mb

     Self-consistent Calculation

     iteration #  1     ecut=   370.00 Ry     beta= 0.70
     Davidson diagonalization with overlap
     ethr =  1.00E-02,  avg # of iterations =  2.9

     Threshold (ethr) on eigenvalues was too large:
     Diagonalizing with lowered threshold

     Davidson diagonalization with overlap
     ethr =  6.46E-05,  avg # of iterations =  4.1

     total cpu time spent up to now is        9.7 secs

     total energy              =    -325.54223449 Ry
     estimated scf accuracy    <       0.02150887 Ry

     iteration #  2     ecut=   370.00 Ry     beta= 0.70
     Davidson diagonalization with overlap
     ethr =  7.68E-05,  avg # of iterations =  5.0

     total cpu time spent up to now is       14.3 secs

     total energy              =    -325.61748847 Ry
     estimated scf accuracy    <       0.03969080 Ry

     iteration #  3     ecut=   370.00 Ry     beta= 0.70
     Davidson diagonalization with overlap
     ethr =  7.68E-05,  avg # of iterations =  1.2

     total cpu time spent up to now is       17.1 secs

     total energy              =    -325.64615706 Ry
     estimated scf accuracy    <       0.01648844 Ry

     iteration #  4     ecut=   370.00 Ry     beta= 0.70
     Davidson diagonalization with overlap
     ethr =  5.89E-05,  avg # of iterations =  2.1

     total cpu time spent up to now is       20.1 secs

     total energy              =    -325.65065707 Ry
     estimated scf accuracy    <       0.00022823 Ry

     iteration #  5     ecut=   370.00 Ry     beta= 0.70
     Davidson diagonalization with overlap
     ethr =  8.15E-07,  avg # of iterations =  3.5

     total cpu time spent up to now is       23.6 secs

     total energy              =    -325.65136356 Ry
     estimated scf accuracy    <       0.00009303 Ry

     iteration #  6     ecut=   370.00 Ry     beta= 0.70
     Davidson diagonalization with overlap
     ethr =  3.32E-07,  avg # of iterations =  2.0

     total cpu time spent up to now is       26.6 secs

     total energy              =    -325.65141566 Ry
     estimated scf accuracy    <       0.00000026 Ry

     iteration #  7     ecut=   370.00 Ry     beta= 0.70
     Davidson diagonalization with overlap
     ethr =  9.23E-10,  avg # of iterations =  4.7

     total cpu time spent up to now is       31.1 secs

     total energy              =    -325.65141599 Ry
     estimated scf accuracy    <       0.00000012 Ry

     iteration #  8     ecut=   370.00 Ry     beta= 0.70
     Davidson diagonalization with overlap
     ethr =  4.35E-10,  avg # of iterations =  2.0

     total cpu time spent up to now is       34.1 secs

     End of self-consistent calculation

     Number of k-points >= 100: set verbosity='high' to print the bands.

     highest occupied level (ev):     8.0246

!    total energy              =    -325.65141605 Ry
     estimated scf accuracy    <          3.7E-09 Ry

     The total energy is the sum of the following terms:
     one-electron contribution =    -150.92129902 Ry
     hartree contribution      =      93.15338865 Ry
     xc contribution           =     -95.22407532 Ry
     ewald contribution        =    -172.65943036 Ry

     convergence has been achieved in   8 iterations

     Writing all to output data dir ./alpha-sn-scf/alphatin.save/ :
     XML data file, charge density, pseudopotentials, collected wavefunctions

     init_run     :      2.30s CPU      2.42s WALL (       1 calls)
     electrons    :     30.92s CPU     31.96s WALL (       1 calls)

     Called by init_run:
     wfcinit      :      1.30s CPU      1.34s WALL (       1 calls)
     potinit      :      0.07s CPU      0.08s WALL (       1 calls)
     hinit0       :      0.49s CPU      0.52s WALL (       1 calls)

     Called by electrons:
     c_bands      :     25.68s CPU     26.06s WALL (       9 calls)
     sum_band     :      4.57s CPU      4.63s WALL (       9 calls)
     v_of_rho     :      0.43s CPU      0.47s WALL (       9 calls)
     newd         :      0.20s CPU      0.22s WALL (       9 calls)
     mix_rho      :      0.06s CPU      0.06s WALL (       9 calls)

     Called by c_bands:
     init_us_2    :      0.60s CPU      0.62s WALL (     703 calls)
     cegterg      :     24.26s CPU     24.48s WALL (     333 calls)

     Called by *egterg:
     cdiaghg      :      0.53s CPU      0.54s WALL (    1464 calls)
     h_psi        :     22.12s CPU     22.33s WALL (    1538 calls)
     s_psi        :      0.41s CPU      0.42s WALL (    1538 calls)
     g_psi        :      0.06s CPU      0.06s WALL (    1168 calls)

     Called by h_psi:
     h_psi:calbec :      0.96s CPU      0.98s WALL (    1538 calls)
     vloc_psi     :     20.55s CPU     20.74s WALL (    1538 calls)
     add_vuspsi   :      0.47s CPU      0.47s WALL (    1538 calls)

     General routines
     calbec       :      1.12s CPU      1.13s WALL (    1871 calls)
     fft          :      0.68s CPU      0.73s WALL (     100 calls)
     ffts         :      0.03s CPU      0.03s WALL (       9 calls)
     fftw         :     21.35s CPU     21.54s WALL (   30454 calls)

     Parallel routines

     PWSCF        :     34.13s CPU     42.97s WALL


   This run was terminated on:  16: 6:48   4Feb2026            

=------------------------------------------------------------------------------=
   JOB DONE.
=------------------------------------------------------------------------------=
