
     Program PWSCF v.7.3.1 starts on  4Feb2026 at 16: 2:11 

     This program is part of the open-source Quantum ESPRESSO suite
     for quantum simulation of materials; please cite
         "P. Giannozzi et al., J. Phys.:Condens. Matter 21 395502 (2009);
         "P. Giannozzi et al., J. Phys.:Condens. Matter 29 465901 (2017);
         "P. Giannozzi et al., J. Chem. Phys. 152 154105 (2020);
          URL http://www.quantum-espresso.org", 
     in publications or presentations arising from this work. More details at
     http://www.quantum-espresso.org/quote

     Parallel version (MPI), running on   128 processors

     MPI processes distributed on     1 nodes
     241756 MiB available memory on the printing compute node when the environment starts

     Waiting for input...
     Reading input from standard input
     Message from routine read_cards :
     DEPRECATED: no units specified in ATOMIC_POSITIONS card
     Message from routine read_cards :
     ATOMIC_POSITIONS: units set to alat

     Current dimensions of program PWSCF are:
     Max number of different atomic species (ntypx) = 10
     Max number of k-points (npk) =  40000
     Max angular momentum in pseudopotentials (lmaxx) =  4

     K-points division:     npool     =       4
     R & G space division:  proc/nbgrp/npool/nimage =      32
     Subspace diagonalization in iterative solution of the eigenvalue problem:
     a serial algorithm will be used


     Parallelization info
     --------------------
     sticks:   dense  smooth     PW     G-vecs:    dense   smooth      PW
     Min         237     237     62                13731    13731    1839
     Max         238     238     63                13737    13737    1842
     Sum        7603    7603   1993               439479   439479   58887

     Using Slab Decomposition



     bravais-lattice index     =            2
     lattice parameter (alat)  =      12.2300  a.u.
     unit-cell volume          =     457.3191 (a.u.)^3
     number of atoms/cell      =            2
     number of atomic types    =            1
     number of electrons       =        28.00
     number of Kohn-Sham states=           14
     kinetic-energy cutoff     =     370.0000  Ry
     charge density cutoff     =    1480.0000  Ry
     scf convergence threshold =      1.0E-07
     mixing beta               =       0.7000
     number of iterations used =            8  plain     mixing
     Exchange-correlation=  SLA  PW   GGX  GGC
                           (   1   4   2   2   0   0   0)

     celldm(1)=  12.230000  celldm(2)=   0.000000  celldm(3)=   0.000000
     celldm(4)=   0.000000  celldm(5)=   0.000000  celldm(6)=   0.000000

     crystal axes: (cart. coord. in units of alat)
               a(1) = (  -0.500000   0.000000   0.500000 )  
               a(2) = (   0.000000   0.500000   0.500000 )  
               a(3) = (  -0.500000   0.500000   0.000000 )  

     reciprocal axes: (cart. coord. in units 2 pi/alat)
               b(1) = ( -1.000000 -1.000000  1.000000 )  
               b(2) = (  1.000000  1.000000  1.000000 )  
               b(3) = ( -1.000000  1.000000 -1.000000 )  


     PseudoPot. # 1 for Sn read from file:
     ./Sn.pw91-n-van.UPF
     MD5 check sum: a38d2a872edd1a4efd76c0a1a38f7031
     Pseudo is Ultrasoft + core correction, Zval = 14.0
     Generated by new atomic code, or converted to UPF format
     Using radial grid of  891 points,  6 beta functions with: 
                l(1) =   0
                l(2) =   0
                l(3) =   1
                l(4) =   1
                l(5) =   2
                l(6) =   2
     Q(r) pseudized with  8 coefficients,  rinner =    1.100   1.100   1.100
                                                       1.100   1.100

     atomic species   valence    mass     pseudopotential
     Sn               14.00   118.70000     Sn( 1.00)

     48 Sym. Ops., with inversion, found (24 have fractional translation)



   Cartesian axes

     site n.     atom                  positions (alat units)
         1        Sn     tau(   1) = (   0.0000000   0.0000000   0.0000000  )
         2        Sn     tau(   2) = (   0.2500000   0.2500000   0.2500000  )

     number of k points=     4
                       cart. coord. in units 2pi/alat
        k(    1) = (   0.0000000   0.0000000   0.0000000), wk =   0.0740741
        k(    2) = (  -0.3333333   0.3333333  -0.3333333), wk =   0.5925926
        k(    3) = (   0.0000000   0.6666667   0.0000000), wk =   0.4444444
        k(    4) = (   0.6666667  -0.0000000   0.6666667), wk =   0.8888889

     Dense  grid:   439479 G-vectors     FFT dimensions: ( 108, 108, 108)

     Estimated max dynamical RAM per process >      23.31 MB

     Estimated total dynamical RAM >       2.60 GB

     Initial potential from superposition of free atoms

     starting charge      27.9964, renormalised to      28.0000
     Starting wfcs are   18 randomized atomic wfcs

     total cpu time spent up to now is        1.4 secs

     per-process dynamical memory:    26.0 Mb

     Self-consistent Calculation

     iteration #  1     ecut=   370.00 Ry     beta= 0.70
     Davidson diagonalization with overlap
     ethr =  1.00E-02,  avg # of iterations =  2.8

     Threshold (ethr) on eigenvalues was too large:
     Diagonalizing with lowered threshold

     Davidson diagonalization with overlap
     ethr =  3.98E-05,  avg # of iterations =  3.5

     total cpu time spent up to now is        1.8 secs

     total energy              =    -325.46429241 Ry
     estimated scf accuracy    <       0.01376250 Ry

     iteration #  2     ecut=   370.00 Ry     beta= 0.70
     Davidson diagonalization with overlap
     ethr =  4.92E-05,  avg # of iterations =  5.5

     total cpu time spent up to now is        2.1 secs

     total energy              =    -325.57361101 Ry
     estimated scf accuracy    <       0.04449948 Ry

     iteration #  3     ecut=   370.00 Ry     beta= 0.70
     Davidson diagonalization with overlap
     ethr =  4.92E-05,  avg # of iterations =  1.0

     total cpu time spent up to now is        2.2 secs

     total energy              =    -325.60298911 Ry
     estimated scf accuracy    <       0.02481449 Ry

     iteration #  4     ecut=   370.00 Ry     beta= 0.70
     Davidson diagonalization with overlap
     ethr =  4.92E-05,  avg # of iterations =  2.2

     total cpu time spent up to now is        2.4 secs

     total energy              =    -325.60724265 Ry
     estimated scf accuracy    <       0.00073897 Ry

     iteration #  5     ecut=   370.00 Ry     beta= 0.70
     Davidson diagonalization with overlap
     ethr =  2.64E-06,  avg # of iterations =  1.8

     negative rho (up, down):  7.667E-07 0.000E+00

     total cpu time spent up to now is        2.6 secs

     total energy              =    -325.60720139 Ry
     estimated scf accuracy    <       0.00015693 Ry

     iteration #  6     ecut=   370.00 Ry     beta= 0.70
     Davidson diagonalization with overlap
     ethr =  5.60E-07,  avg # of iterations =  2.0

     negative rho (up, down):  5.724E-07 0.000E+00

     total cpu time spent up to now is        2.8 secs

     total energy              =    -325.60723383 Ry
     estimated scf accuracy    <       0.00000457 Ry

     iteration #  7     ecut=   370.00 Ry     beta= 0.70
     Davidson diagonalization with overlap
     ethr =  1.63E-08,  avg # of iterations =  3.5

     negative rho (up, down):  5.957E-07 0.000E+00

     total cpu time spent up to now is        3.1 secs

     total energy              =    -325.60723541 Ry
     estimated scf accuracy    <       0.00000012 Ry

     iteration #  8     ecut=   370.00 Ry     beta= 0.70
     Davidson diagonalization with overlap
     ethr =  4.14E-10,  avg # of iterations =  3.0

     negative rho (up, down):  6.029E-07 0.000E+00

     total cpu time spent up to now is        3.3 secs

     End of self-consistent calculation

          k = 0.0000 0.0000 0.0000 ( 55009 PWs)   bands (ev):

   -13.6354 -13.6354 -13.6354 -13.5778 -13.5778 -13.2593 -13.2593 -13.2593
   -13.2510 -13.2510  -2.6512   7.3953   8.1133   8.1133

          k =-0.3333 0.3333-0.3333 ( 55003 PWs)   bands (ev):

   -13.6683 -13.6683 -13.6155 -13.5246 -13.5246 -13.3152 -13.3152 -13.2847
   -13.2065 -13.2065  -1.6429   2.8722   7.0972   7.0972

          k = 0.0000 0.6667 0.0000 ( 54934 PWs)   bands (ev):

   -13.6761 -13.6761 -13.6226 -13.4947 -13.4484 -13.4277 -13.3313 -13.2501
   -13.1988 -13.1988  -1.2249   2.6476   5.9207   5.9207

          k = 0.6667-0.0000 0.6667 ( 54964 PWs)   bands (ev):

   -13.7119 -13.6882 -13.5511 -13.4495 -13.4419 -13.4191 -13.3923 -13.3275
   -13.1806 -13.1582  -0.2854   1.3361   4.5171   6.1534

     highest occupied level (ev):     8.1133

!    total energy              =    -325.60723548 Ry
     estimated scf accuracy    <          8.3E-09 Ry

     The total energy is the sum of the following terms:
     one-electron contribution =    -151.10626245 Ry
     hartree contribution      =      93.40791014 Ry
     xc contribution           =     -95.24945281 Ry
     ewald contribution        =    -172.65943036 Ry

     convergence has been achieved in   8 iterations

     Writing all to output data dir ./alpha-sn-scf/alphatin.save/ :
     XML data file, charge density, pseudopotentials, collected wavefunctions

     init_run     :      1.05s CPU      1.11s WALL (       1 calls)
     electrons    :      1.76s CPU      2.34s WALL (       1 calls)

     Called by init_run:
     wfcinit      :      0.04s CPU      0.05s WALL (       1 calls)
     potinit      :      0.07s CPU      0.08s WALL (       1 calls)
     hinit0       :      0.49s CPU      0.51s WALL (       1 calls)

     Called by electrons:
     c_bands      :      0.68s CPU      0.71s WALL (       9 calls)
     sum_band     :      0.42s CPU      0.45s WALL (       9 calls)
     v_of_rho     :      0.43s CPU      0.46s WALL (       9 calls)
     newd         :      0.21s CPU      0.22s WALL (       9 calls)
     mix_rho      :      0.06s CPU      0.06s WALL (       9 calls)

     Called by c_bands:
     init_us_2    :      0.02s CPU      0.02s WALL (      19 calls)
     cegterg      :      0.61s CPU      0.63s WALL (       9 calls)

     Called by *egterg:
     cdiaghg      :      0.01s CPU      0.01s WALL (      34 calls)
     h_psi        :      0.56s CPU      0.59s WALL (      36 calls)
     s_psi        :      0.01s CPU      0.01s WALL (      36 calls)
     g_psi        :      0.00s CPU      0.00s WALL (      26 calls)

     Called by h_psi:
     h_psi:calbec :      0.02s CPU      0.02s WALL (      36 calls)
     vloc_psi     :      0.52s CPU      0.54s WALL (      36 calls)
     add_vuspsi   :      0.01s CPU      0.01s WALL (      36 calls)

     General routines
     calbec       :      0.03s CPU      0.03s WALL (      45 calls)
     fft          :      0.68s CPU      0.72s WALL (     100 calls)
     ffts         :      0.02s CPU      0.02s WALL (       9 calls)
     fftw         :      0.55s CPU      0.57s WALL (     800 calls)

     Parallel routines

     PWSCF        :      3.37s CPU      4.82s WALL


   This run was terminated on:  16: 2:16   4Feb2026            

=------------------------------------------------------------------------------=
   JOB DONE.
=------------------------------------------------------------------------------=
