
     Program PWSCF v.7.3.1 starts on  4Feb2026 at 16: 2:19 

     This program is part of the open-source Quantum ESPRESSO suite
     for quantum simulation of materials; please cite
         "P. Giannozzi et al., J. Phys.:Condens. Matter 21 395502 (2009);
         "P. Giannozzi et al., J. Phys.:Condens. Matter 29 465901 (2017);
         "P. Giannozzi et al., J. Chem. Phys. 152 154105 (2020);
          URL http://www.quantum-espresso.org", 
     in publications or presentations arising from this work. More details at
     http://www.quantum-espresso.org/quote

     Parallel version (MPI), running on   128 processors

     MPI processes distributed on     1 nodes
     241685 MiB available memory on the printing compute node when the environment starts

     Waiting for input...
     Reading input from standard input
     Message from routine read_cards :
     DEPRECATED: no units specified in ATOMIC_POSITIONS card
     Message from routine read_cards :
     ATOMIC_POSITIONS: units set to alat

     Current dimensions of program PWSCF are:
     Max number of different atomic species (ntypx) = 10
     Max number of k-points (npk) =  40000
     Max angular momentum in pseudopotentials (lmaxx) =  4

     K-points division:     npool     =       4
     R & G space division:  proc/nbgrp/npool/nimage =      32
     Subspace diagonalization in iterative solution of the eigenvalue problem:
     a serial algorithm will be used


     Parallelization info
     --------------------
     sticks:   dense  smooth     PW     G-vecs:    dense   smooth      PW
     Min         237     237     63                13731    13731    1875
     Max         238     238     64                13737    13737    1879
     Sum        7603    7603   2029               439479   439479   60039

     Using Slab Decomposition



     bravais-lattice index     =            2
     lattice parameter (alat)  =      12.2300  a.u.
     unit-cell volume          =     457.3191 (a.u.)^3
     number of atoms/cell      =            2
     number of atomic types    =            1
     number of electrons       =        28.00
     number of Kohn-Sham states=           14
     kinetic-energy cutoff     =     370.0000  Ry
     charge density cutoff     =    1480.0000  Ry
     scf convergence threshold =      1.0E-07
     mixing beta               =       0.7000
     number of iterations used =            8  plain     mixing
     Exchange-correlation=  SLA  PW   GGX  GGC
                           (   1   4   2   2   0   0   0)

     celldm(1)=  12.230000  celldm(2)=   0.000000  celldm(3)=   0.000000
     celldm(4)=   0.000000  celldm(5)=   0.000000  celldm(6)=   0.000000

     crystal axes: (cart. coord. in units of alat)
               a(1) = (  -0.500000   0.000000   0.500000 )  
               a(2) = (   0.000000   0.500000   0.500000 )  
               a(3) = (  -0.500000   0.500000   0.000000 )  

     reciprocal axes: (cart. coord. in units 2 pi/alat)
               b(1) = ( -1.000000 -1.000000  1.000000 )  
               b(2) = (  1.000000  1.000000  1.000000 )  
               b(3) = ( -1.000000  1.000000 -1.000000 )  


     PseudoPot. # 1 for Sn read from file:
     ./Sn.pw91-n-van.UPF
     MD5 check sum: a38d2a872edd1a4efd76c0a1a38f7031
     Pseudo is Ultrasoft + core correction, Zval = 14.0
     Generated by new atomic code, or converted to UPF format
     Using radial grid of  891 points,  6 beta functions with: 
                l(1) =   0
                l(2) =   0
                l(3) =   1
                l(4) =   1
                l(5) =   2
                l(6) =   2
     Q(r) pseudized with  8 coefficients,  rinner =    1.100   1.100   1.100
                                                       1.100   1.100

     atomic species   valence    mass     pseudopotential
     Sn               14.00   118.70000     Sn( 1.00)

     48 Sym. Ops., with inversion, found (24 have fractional translation)



   Cartesian axes

     site n.     atom                  positions (alat units)
         1        Sn     tau(   1) = (   0.0000000   0.0000000   0.0000000  )
         2        Sn     tau(   2) = (   0.2500000   0.2500000   0.2500000  )

     number of k points=     8
                       cart. coord. in units 2pi/alat
        k(    1) = (   0.0000000   0.0000000   0.0000000), wk =   0.0312500
        k(    2) = (  -0.2500000   0.2500000  -0.2500000), wk =   0.2500000
        k(    3) = (   0.5000000  -0.5000000   0.5000000), wk =   0.1250000
        k(    4) = (   0.0000000   0.5000000   0.0000000), wk =   0.1875000
        k(    5) = (   0.7500000  -0.2500000   0.7500000), wk =   0.7500000
        k(    6) = (   0.5000000   0.0000000   0.5000000), wk =   0.3750000
        k(    7) = (   0.0000000  -1.0000000   0.0000000), wk =   0.0937500
        k(    8) = (  -0.5000000  -1.0000000   0.0000000), wk =   0.1875000

     Dense  grid:   439479 G-vectors     FFT dimensions: ( 108, 108, 108)

     Estimated max dynamical RAM per process >      24.05 MB

     Estimated total dynamical RAM >       2.69 GB

     Initial potential from superposition of free atoms

     starting charge      27.9964, renormalised to      28.0000
     Starting wfcs are   18 randomized atomic wfcs

     total cpu time spent up to now is        1.5 secs

     per-process dynamical memory:    26.1 Mb

     Self-consistent Calculation

     iteration #  1     ecut=   370.00 Ry     beta= 0.70
     Davidson diagonalization with overlap
     ethr =  1.00E-02,  avg # of iterations =  2.5

     Threshold (ethr) on eigenvalues was too large:
     Diagonalizing with lowered threshold

     Davidson diagonalization with overlap
     ethr =  5.06E-05,  avg # of iterations =  3.6

     total cpu time spent up to now is        2.0 secs

     total energy              =    -325.50468016 Ry
     estimated scf accuracy    <       0.01727405 Ry

     iteration #  2     ecut=   370.00 Ry     beta= 0.70
     Davidson diagonalization with overlap
     ethr =  6.17E-05,  avg # of iterations =  4.9

     total cpu time spent up to now is        2.4 secs

     total energy              =    -325.58337589 Ry
     estimated scf accuracy    <       0.03670807 Ry

     iteration #  3     ecut=   370.00 Ry     beta= 0.70
     Davidson diagonalization with overlap
     ethr =  6.17E-05,  avg # of iterations =  1.2

     total cpu time spent up to now is        2.7 secs

     total energy              =    -325.61242316 Ry
     estimated scf accuracy    <       0.01640740 Ry

     iteration #  4     ecut=   370.00 Ry     beta= 0.70
     Davidson diagonalization with overlap
     ethr =  5.86E-05,  avg # of iterations =  2.9

     total cpu time spent up to now is        3.0 secs

     total energy              =    -325.63174078 Ry
     estimated scf accuracy    <       0.00033722 Ry

     iteration #  5     ecut=   370.00 Ry     beta= 0.70
     Davidson diagonalization with overlap
     ethr =  1.20E-06,  avg # of iterations =  3.2

     total cpu time spent up to now is        3.3 secs

     total energy              =    -325.63528844 Ry
     estimated scf accuracy    <       0.00118402 Ry

     iteration #  6     ecut=   370.00 Ry     beta= 0.70
     Davidson diagonalization with overlap
     ethr =  1.20E-06,  avg # of iterations =  2.4

     total cpu time spent up to now is        3.6 secs

     total energy              =    -325.63623569 Ry
     estimated scf accuracy    <       0.00013390 Ry

     iteration #  7     ecut=   370.00 Ry     beta= 0.70
     Davidson diagonalization with overlap
     ethr =  4.78E-07,  avg # of iterations =  1.8

     negative rho (up, down):  5.807E-08 0.000E+00

     total cpu time spent up to now is        3.8 secs

     total energy              =    -325.63625179 Ry
     estimated scf accuracy    <       0.00000661 Ry

     iteration #  8     ecut=   370.00 Ry     beta= 0.70
     Davidson diagonalization with overlap
     ethr =  2.36E-08,  avg # of iterations =  2.5

     negative rho (up, down):  3.794E-07 0.000E+00

     total cpu time spent up to now is        4.1 secs

     total energy              =    -325.63625788 Ry
     estimated scf accuracy    <       0.00000177 Ry

     iteration #  9     ecut=   370.00 Ry     beta= 0.70
     Davidson diagonalization with overlap
     ethr =  6.33E-09,  avg # of iterations =  2.0

     negative rho (up, down):  3.578E-07 0.000E+00

     total cpu time spent up to now is        4.4 secs

     End of self-consistent calculation

          k = 0.0000 0.0000 0.0000 ( 55009 PWs)   bands (ev):

   -13.7162 -13.7162 -13.7162 -13.6571 -13.6571 -13.3399 -13.3399 -13.3399
   -13.3312 -13.3312  -2.7006   7.3368   8.0629   8.0629

          k =-0.2500 0.2500-0.2500 ( 55036 PWs)   bands (ev):

   -13.7425 -13.7425 -13.7031 -13.6163 -13.6163 -13.3855 -13.3855 -13.3567
   -13.2940 -13.2940  -2.1086   3.9182   7.2999   7.2999

          k = 0.5000-0.5000 0.5000 ( 54920 PWs)   bands (ev):

   -13.7533 -13.7533 -13.6891 -13.5951 -13.5951 -13.4017 -13.4017 -13.3744
   -13.2823 -13.2823  -1.0622   1.6348   6.8428   6.8428

          k = 0.0000 0.5000 0.0000 ( 54957 PWs)   bands (ev):

   -13.7444 -13.7444 -13.7203 -13.6084 -13.5587 -13.4724 -13.3780 -13.3097
   -13.2986 -13.2986  -1.8916   3.8043   6.3558   6.3558

          k = 0.7500-0.2500 0.7500 ( 54953 PWs)   bands (ev):

   -13.7832 -13.7627 -13.6564 -13.5576 -13.5285 -13.5003 -13.4328 -13.3841
   -13.2703 -13.2492  -0.7142   1.6731   5.0192   6.0387

          k = 0.5000 0.0000 0.5000 ( 55008 PWs)   bands (ev):

   -13.7766 -13.7646 -13.6504 -13.5922 -13.5545 -13.4467 -13.4157 -13.4015
   -13.2665 -13.2595  -1.2016   2.3655   4.9297   6.7741

          k = 0.0000-1.0000 0.0000 ( 54930 PWs)   bands (ev):

   -13.7686 -13.7686 -13.6321 -13.6321 -13.4923 -13.4923 -13.4070 -13.4070
   -13.2612 -13.2612   0.4179   0.4179   5.4842   5.4842

          k =-0.5000-1.0000 0.0000 ( 54948 PWs)   bands (ev):

   -13.7866 -13.7866 -13.5732 -13.5732 -13.5015 -13.5015 -13.4561 -13.4561
   -13.2437 -13.2437   0.4782   0.4782   4.8998   4.8998

     highest occupied level (ev):     8.0629

!    total energy              =    -325.63625830 Ry
     estimated scf accuracy    <       0.00000002 Ry

     The total energy is the sum of the following terms:
     one-electron contribution =    -151.00260402 Ry
     hartree contribution      =      93.26033075 Ry
     xc contribution           =     -95.23455466 Ry
     ewald contribution        =    -172.65943036 Ry

     convergence has been achieved in   9 iterations

     Writing all to output data dir ./alpha-sn-scf/alphatin.save/ :
     XML data file, charge density, pseudopotentials, collected wavefunctions

     init_run     :      1.10s CPU      1.17s WALL (       1 calls)
     electrons    :      2.86s CPU      3.10s WALL (       1 calls)

     Called by init_run:
     wfcinit      :      0.07s CPU      0.09s WALL (       1 calls)
     potinit      :      0.07s CPU      0.07s WALL (       1 calls)
     hinit0       :      0.52s CPU      0.53s WALL (       1 calls)

     Called by electrons:
     c_bands      :      1.50s CPU      1.53s WALL (      10 calls)
     sum_band     :      0.59s CPU      0.64s WALL (      10 calls)
     v_of_rho     :      0.48s CPU      0.51s WALL (      10 calls)
     newd         :      0.23s CPU      0.24s WALL (      10 calls)
     mix_rho      :      0.07s CPU      0.07s WALL (      10 calls)

     Called by c_bands:
     init_us_2    :      0.04s CPU      0.04s WALL (      42 calls)
     cegterg      :      1.40s CPU      1.41s WALL (      20 calls)

     Called by *egterg:
     cdiaghg      :      0.03s CPU      0.03s WALL (      79 calls)
     h_psi        :      1.27s CPU      1.29s WALL (      83 calls)
     s_psi        :      0.02s CPU      0.02s WALL (      83 calls)
     g_psi        :      0.00s CPU      0.00s WALL (      61 calls)

     Called by h_psi:
     h_psi:calbec :      0.05s CPU      0.06s WALL (      83 calls)
     vloc_psi     :      1.18s CPU      1.20s WALL (      83 calls)
     add_vuspsi   :      0.03s CPU      0.03s WALL (      83 calls)

     General routines
     calbec       :      0.06s CPU      0.07s WALL (     103 calls)
     fft          :      0.70s CPU      0.74s WALL (     111 calls)
     ffts         :      0.03s CPU      0.03s WALL (      10 calls)
     fftw         :      1.24s CPU      1.25s WALL (    1776 calls)

     Parallel routines

     PWSCF        :      4.24s CPU      5.03s WALL


   This run was terminated on:  16: 2:24   4Feb2026            

=------------------------------------------------------------------------------=
   JOB DONE.
=------------------------------------------------------------------------------=
