
     Program PWSCF v.7.3.1 starts on  4Feb2026 at 16: 2:30 

     This program is part of the open-source Quantum ESPRESSO suite
     for quantum simulation of materials; please cite
         "P. Giannozzi et al., J. Phys.:Condens. Matter 21 395502 (2009);
         "P. Giannozzi et al., J. Phys.:Condens. Matter 29 465901 (2017);
         "P. Giannozzi et al., J. Chem. Phys. 152 154105 (2020);
          URL http://www.quantum-espresso.org", 
     in publications or presentations arising from this work. More details at
     http://www.quantum-espresso.org/quote

     Parallel version (MPI), running on   128 processors

     MPI processes distributed on     1 nodes
     241613 MiB available memory on the printing compute node when the environment starts

     Waiting for input...
     Reading input from standard input
     Message from routine read_cards :
     DEPRECATED: no units specified in ATOMIC_POSITIONS card
     Message from routine read_cards :
     ATOMIC_POSITIONS: units set to alat

     Current dimensions of program PWSCF are:
     Max number of different atomic species (ntypx) = 10
     Max number of k-points (npk) =  40000
     Max angular momentum in pseudopotentials (lmaxx) =  4

     K-points division:     npool     =       4
     R & G space division:  proc/nbgrp/npool/nimage =      32
     Subspace diagonalization in iterative solution of the eigenvalue problem:
     a serial algorithm will be used


     Parallelization info
     --------------------
     sticks:   dense  smooth     PW     G-vecs:    dense   smooth      PW
     Min         237     237     64                13731    13731    1885
     Max         238     238     65                13737    13737    1889
     Sum        7603    7603   2053               439479   439479   60375

     Using Slab Decomposition



     bravais-lattice index     =            2
     lattice parameter (alat)  =      12.2300  a.u.
     unit-cell volume          =     457.3191 (a.u.)^3
     number of atoms/cell      =            2
     number of atomic types    =            1
     number of electrons       =        28.00
     number of Kohn-Sham states=           14
     kinetic-energy cutoff     =     370.0000  Ry
     charge density cutoff     =    1480.0000  Ry
     scf convergence threshold =      1.0E-07
     mixing beta               =       0.7000
     number of iterations used =            8  plain     mixing
     Exchange-correlation=  SLA  PW   GGX  GGC
                           (   1   4   2   2   0   0   0)

     celldm(1)=  12.230000  celldm(2)=   0.000000  celldm(3)=   0.000000
     celldm(4)=   0.000000  celldm(5)=   0.000000  celldm(6)=   0.000000

     crystal axes: (cart. coord. in units of alat)
               a(1) = (  -0.500000   0.000000   0.500000 )  
               a(2) = (   0.000000   0.500000   0.500000 )  
               a(3) = (  -0.500000   0.500000   0.000000 )  

     reciprocal axes: (cart. coord. in units 2 pi/alat)
               b(1) = ( -1.000000 -1.000000  1.000000 )  
               b(2) = (  1.000000  1.000000  1.000000 )  
               b(3) = ( -1.000000  1.000000 -1.000000 )  


     PseudoPot. # 1 for Sn read from file:
     ./Sn.pw91-n-van.UPF
     MD5 check sum: a38d2a872edd1a4efd76c0a1a38f7031
     Pseudo is Ultrasoft + core correction, Zval = 14.0
     Generated by new atomic code, or converted to UPF format
     Using radial grid of  891 points,  6 beta functions with: 
                l(1) =   0
                l(2) =   0
                l(3) =   1
                l(4) =   1
                l(5) =   2
                l(6) =   2
     Q(r) pseudized with  8 coefficients,  rinner =    1.100   1.100   1.100
                                                       1.100   1.100

     atomic species   valence    mass     pseudopotential
     Sn               14.00   118.70000     Sn( 1.00)

     48 Sym. Ops., with inversion, found (24 have fractional translation)



   Cartesian axes

     site n.     atom                  positions (alat units)
         1        Sn     tau(   1) = (   0.0000000   0.0000000   0.0000000  )
         2        Sn     tau(   2) = (   0.2500000   0.2500000   0.2500000  )

     number of k points=    10
                       cart. coord. in units 2pi/alat
        k(    1) = (   0.0000000   0.0000000   0.0000000), wk =   0.0160000
        k(    2) = (  -0.2000000   0.2000000  -0.2000000), wk =   0.1280000
        k(    3) = (  -0.4000000   0.4000000  -0.4000000), wk =   0.1280000
        k(    4) = (   0.0000000   0.4000000   0.0000000), wk =   0.0960000
        k(    5) = (  -0.2000000   0.6000000  -0.2000000), wk =   0.3840000
        k(    6) = (   0.6000000  -0.2000000   0.6000000), wk =   0.3840000
        k(    7) = (   0.4000000   0.0000000   0.4000000), wk =   0.1920000
        k(    8) = (   0.0000000   0.8000000   0.0000000), wk =   0.0960000
        k(    9) = (   0.8000000   0.0000000   0.8000000), wk =   0.1920000
        k(   10) = (   0.6000000  -0.2000000   1.0000000), wk =   0.3840000

     Dense  grid:   439479 G-vectors     FFT dimensions: ( 108, 108, 108)

     Estimated max dynamical RAM per process >      24.41 MB

     Estimated total dynamical RAM >       2.74 GB

     Initial potential from superposition of free atoms

     starting charge      27.9964, renormalised to      28.0000
     Starting wfcs are   18 randomized atomic wfcs

     total cpu time spent up to now is        1.5 secs

     per-process dynamical memory:    26.3 Mb

     Self-consistent Calculation

     iteration #  1     ecut=   370.00 Ry     beta= 0.70
     Davidson diagonalization with overlap
     ethr =  1.00E-02,  avg # of iterations =  2.7

     Threshold (ethr) on eigenvalues was too large:
     Diagonalizing with lowered threshold

     Davidson diagonalization with overlap
     ethr =  5.73E-05,  avg # of iterations =  3.7

     total cpu time spent up to now is        2.2 secs

     total energy              =    -325.51989664 Ry
     estimated scf accuracy    <       0.01902957 Ry

     iteration #  2     ecut=   370.00 Ry     beta= 0.70
     Davidson diagonalization with overlap
     ethr =  6.80E-05,  avg # of iterations =  5.1

     total cpu time spent up to now is        2.7 secs

     total energy              =    -325.60228191 Ry
     estimated scf accuracy    <       0.03942514 Ry

     iteration #  3     ecut=   370.00 Ry     beta= 0.70
     Davidson diagonalization with overlap
     ethr =  6.80E-05,  avg # of iterations =  1.5

     total cpu time spent up to now is        3.0 secs

     total energy              =    -325.63120885 Ry
     estimated scf accuracy    <       0.01726237 Ry

     iteration #  4     ecut=   370.00 Ry     beta= 0.70
     Davidson diagonalization with overlap
     ethr =  6.17E-05,  avg # of iterations =  2.8

     total cpu time spent up to now is        3.4 secs

     total energy              =    -325.64461598 Ry
     estimated scf accuracy    <       0.00013706 Ry

     iteration #  5     ecut=   370.00 Ry     beta= 0.70
     Davidson diagonalization with overlap
     ethr =  4.90E-07,  avg # of iterations =  3.9

     total cpu time spent up to now is        3.8 secs

     total energy              =    -325.64515941 Ry
     estimated scf accuracy    <       0.00043383 Ry

     iteration #  6     ecut=   370.00 Ry     beta= 0.70
     Davidson diagonalization with overlap
     ethr =  4.90E-07,  avg # of iterations =  2.3

     total cpu time spent up to now is        4.2 secs

     total energy              =    -325.64529633 Ry
     estimated scf accuracy    <       0.00001584 Ry

     iteration #  7     ecut=   370.00 Ry     beta= 0.70
     Davidson diagonalization with overlap
     ethr =  5.66E-08,  avg # of iterations =  1.9

     negative rho (up, down):  1.987E-08 0.000E+00

     total cpu time spent up to now is        4.6 secs

     total energy              =    -325.64529985 Ry
     estimated scf accuracy    <       0.00000265 Ry

     iteration #  8     ecut=   370.00 Ry     beta= 0.70
     Davidson diagonalization with overlap
     ethr =  9.48E-09,  avg # of iterations =  2.0

     negative rho (up, down):  1.172E-07 0.000E+00

     total cpu time spent up to now is        5.0 secs

     total energy              =    -325.64530078 Ry
     estimated scf accuracy    <       0.00000032 Ry

     iteration #  9     ecut=   370.00 Ry     beta= 0.70
     Davidson diagonalization with overlap
     ethr =  1.15E-09,  avg # of iterations =  2.2

     negative rho (up, down):  1.199E-07 0.000E+00

     total cpu time spent up to now is        5.4 secs

     End of self-consistent calculation

          k = 0.0000 0.0000 0.0000 ( 55009 PWs)   bands (ev):

   -13.7464 -13.7464 -13.7464 -13.6866 -13.6866 -13.3698 -13.3698 -13.3698
   -13.3610 -13.3610  -2.7202   7.3137   8.0429   8.0429

          k =-0.2000 0.2000-0.2000 ( 54973 PWs)   bands (ev):

   -13.7672 -13.7672 -13.7374 -13.6555 -13.6555 -13.4072 -13.4072 -13.3814
   -13.3298 -13.3298  -2.3358   4.6278   7.4641   7.4641

          k =-0.4000 0.4000-0.4000 ( 54980 PWs)   bands (ev):

   -13.7819 -13.7819 -13.7220 -13.6277 -13.6277 -13.4293 -13.4293 -13.4010
   -13.3140 -13.3140  -1.3669   2.1023   6.9011   6.9011

          k = 0.0000 0.4000 0.0000 ( 55061 PWs)   bands (ev):

   -13.7664 -13.7664 -13.7549 -13.6549 -13.6170 -13.4696 -13.3914 -13.3409
   -13.3409 -13.3339  -2.2005   4.5327   6.6999   6.6999

          k =-0.2000 0.6000-0.2000 ( 54940 PWs)   bands (ev):

   -13.7999 -13.7840 -13.7133 -13.6169 -13.5771 -13.5093 -13.4318 -13.3877
   -13.3135 -13.2946  -1.3632   2.5410   5.6448   6.2153

          k = 0.6000-0.2000 0.6000 ( 54961 PWs)   bands (ev):

   -13.8124 -13.7940 -13.6777 -13.5989 -13.5871 -13.4767 -13.4686 -13.4302
   -13.2981 -13.2814  -0.7722   1.5771   5.0072   6.4236

          k = 0.4000 0.0000 0.4000 ( 54967 PWs)   bands (ev):

   -13.7899 -13.7886 -13.7058 -13.6393 -13.6075 -13.4568 -13.4279 -13.4013
   -13.3111 -13.3033  -1.7234   3.1933   5.4907   7.1752

          k = 0.0000 0.8000 0.0000 ( 54930 PWs)   bands (ev):

   -13.7944 -13.7944 -13.7094 -13.6021 -13.5724 -13.4963 -13.4718 -13.3864
   -13.2982 -13.2982  -0.6868   1.6578   5.6114   5.6114

          k = 0.8000 0.0000 0.8000 ( 54980 PWs)   bands (ev):

   -13.8176 -13.7993 -13.6604 -13.6009 -13.5329 -13.5148 -13.4944 -13.4377
   -13.2909 -13.2730   0.1480   0.7099   4.7089   5.7025

          k = 0.6000-0.2000 1.0000 ( 54923 PWs)   bands (ev):

   -13.8154 -13.8073 -13.6535 -13.5753 -13.5573 -13.5275 -13.4817 -13.4447
   -13.2839 -13.2765  -0.4072   1.3572   4.7534   5.5096

     highest occupied level (ev):     8.0429

!    total energy              =    -325.64530085 Ry
     estimated scf accuracy    <          8.3E-09 Ry

     The total energy is the sum of the following terms:
     one-electron contribution =    -150.95895522 Ry
     hartree contribution      =      93.20178676 Ry
     xc contribution           =     -95.22870202 Ry
     ewald contribution        =    -172.65943036 Ry

     convergence has been achieved in   9 iterations

     Writing all to output data dir ./alpha-sn-scf/alphatin.save/ :
     XML data file, charge density, pseudopotentials, collected wavefunctions

     init_run     :      1.10s CPU      1.18s WALL (       1 calls)
     electrons    :      3.76s CPU      4.05s WALL (       1 calls)

     Called by init_run:
     wfcinit      :      0.11s CPU      0.13s WALL (       1 calls)
     potinit      :      0.06s CPU      0.08s WALL (       1 calls)
     hinit0       :      0.50s CPU      0.52s WALL (       1 calls)

     Called by electrons:
     c_bands      :      2.27s CPU      2.31s WALL (      10 calls)
     sum_band     :      0.73s CPU      0.76s WALL (      10 calls)
     v_of_rho     :      0.49s CPU      0.51s WALL (      10 calls)
     newd         :      0.22s CPU      0.23s WALL (      10 calls)
     mix_rho      :      0.07s CPU      0.08s WALL (      10 calls)

     Called by c_bands:
     init_us_2    :      0.06s CPU      0.06s WALL (      63 calls)
     cegterg      :      2.13s CPU      2.15s WALL (      30 calls)

     Called by *egterg:
     cdiaghg      :      0.05s CPU      0.05s WALL (     125 calls)
     h_psi        :      1.94s CPU      1.97s WALL (     131 calls)
     s_psi        :      0.04s CPU      0.04s WALL (     131 calls)
     g_psi        :      0.01s CPU      0.01s WALL (      98 calls)

     Called by h_psi:
     h_psi:calbec :      0.08s CPU      0.08s WALL (     131 calls)
     vloc_psi     :      1.80s CPU      1.83s WALL (     131 calls)
     add_vuspsi   :      0.04s CPU      0.04s WALL (     131 calls)

     General routines
     calbec       :      0.10s CPU      0.10s WALL (     161 calls)
     fft          :      0.72s CPU      0.75s WALL (     111 calls)
     ffts         :      0.02s CPU      0.02s WALL (      10 calls)
     fftw         :      1.88s CPU      1.91s WALL (    2694 calls)

     Parallel routines

     PWSCF        :      5.18s CPU      7.06s WALL


   This run was terminated on:  16: 2:37   4Feb2026            

=------------------------------------------------------------------------------=
   JOB DONE.
=------------------------------------------------------------------------------=
