
     Program PWSCF v.7.3.1 starts on 21Mar2026 at  5:47:32 

     This program is part of the open-source Quantum ESPRESSO suite
     for quantum simulation of materials; please cite
         "P. Giannozzi et al., J. Phys.:Condens. Matter 21 395502 (2009);
         "P. Giannozzi et al., J. Phys.:Condens. Matter 29 465901 (2017);
         "P. Giannozzi et al., J. Chem. Phys. 152 154105 (2020);
          URL http://www.quantum-espresso.org", 
     in publications or presentations arising from this work. More details at
     http://www.quantum-espresso.org/quote

     Parallel version (MPI), running on   128 processors

     MPI processes distributed on     1 nodes
     236858 MiB available memory on the printing compute node when the environment starts

     Waiting for input...
     Reading input from standard input

     Current dimensions of program PWSCF are:
     Max number of different atomic species (ntypx) = 10
     Max number of k-points (npk) =  40000
     Max angular momentum in pseudopotentials (lmaxx) =  4
     Found identity + ( -0.5000 -0.5000  0.0000) symmetry
     This is a supercell, fractional translations are disabled

     K-points division:     npool     =       4
     R & G space division:  proc/nbgrp/npool/nimage =      32
     Subspace diagonalization in iterative solution of the eigenvalue problem:
     a serial algorithm will be used


     Parallelization info
     --------------------
     sticks:   dense  smooth     PW     G-vecs:    dense   smooth      PW
     Min         111     111     30                 6253     6253     900
     Max         112     112     31                 6260     6260     907
     Sum        3583    3583    989               200273   200273   28951

     Using Slab Decomposition



     bravais-lattice index     =            8
     lattice parameter (alat)  =       8.5075  a.u.
     unit-cell volume          =    1736.0838 (a.u.)^3
     number of atoms/cell      =           24
     number of atomic types    =            2
     number of electrons       =        64.00
     number of Kohn-Sham states=           32
     kinetic-energy cutoff     =      90.0000  Ry
     charge density cutoff     =     360.0000  Ry
     scf convergence threshold =      1.0E-07
     mixing beta               =       0.7000
     number of iterations used =            8  plain     mixing
     Exchange-correlation=  SLA  PW   PBE  PBE
                           (   1   4   3   4   0   0   0)

     celldm(1)=   8.507546  celldm(2)=   1.732119  celldm(3)=   1.627721
     celldm(4)=   0.000000  celldm(5)=   0.000000  celldm(6)=   0.000000

     crystal axes: (cart. coord. in units of alat)
               a(1) = (   1.000000   0.000000   0.000000 )  
               a(2) = (   0.000000   1.732119   0.000000 )  
               a(3) = (   0.000000   0.000000   1.627721 )  

     reciprocal axes: (cart. coord. in units 2 pi/alat)
               b(1) = (  1.000000  0.000000  0.000000 )  
               b(2) = (  0.000000  0.577328  0.000000 )  
               b(3) = (  0.000000  0.000000  0.614356 )  


     PseudoPot. # 1 for H  read from file:
     ./H.pbe-van_ak.UPF
     MD5 check sum: 077eb6d537518a38cb46c6de387227b7
     Pseudo is Ultrasoft, Zval =  1.0
     Generated by new atomic code, or converted to UPF format
     Using radial grid of  615 points,  1 beta functions with: 
                l(1) =   0
     Q(r) pseudized with  8 coefficients,  rinner =    0.800

     PseudoPot. # 2 for O  read from file:
     ./O.pbe-van_ak.UPF
     MD5 check sum: 78c19812648e8988a0fe644b0f25305e
     Pseudo is Ultrasoft, Zval =  6.0
     Generated by new atomic code, or converted to UPF format
     Using radial grid of  737 points,  4 beta functions with: 
                l(1) =   0
                l(2) =   0
                l(3) =   1
                l(4) =   1
     Q(r) pseudized with  8 coefficients,  rinner =    0.800   0.800   0.800


     atomic species   valence    mass     pseudopotential
     H                 1.00     1.00800     H ( 1.00)
     O                 6.00    16.00000     O ( 1.00)

      2 Sym. Ops. (no inversion) found



   Cartesian axes

     site n.     atom                  positions (alat units)
         1        O      tau(   1) = (   0.0000000   1.1515127   0.1027092  )
         2        O      tau(   2) = (   0.0000000   0.5806063   0.9165697  )
         3        O      tau(   3) = (   0.5000000   0.2854532   0.1027092  )
         4        O      tau(   4) = (   0.5000000   1.4466659   0.9165697  )
         5        O      tau(   5) = (   0.5000000   1.4298643   1.5250118  )
         6        O      tau(   6) = (   0.5000000   0.3022548   0.7111513  )
         7        O      tau(   7) = (   0.0000000   0.5638048   1.5250118  )
         8        O      tau(   8) = (   0.0000000   1.1683143   0.7111513  )
         9        H      tau(   9) = (   0.0000000   1.1494343   0.3195216  )
        10        H      tau(  10) = (   0.0000000   0.5826848   1.1333822  )
        11        H      tau(  11) = (   0.5000000   0.2833747   0.3195216  )
        12        H      tau(  12) = (   0.5000000   1.4487443   1.1333822  )
        13        H      tau(  13) = (   0.0000000   0.9289355   0.0297873  )
        14        H      tau(  14) = (   0.0000000   0.8031836   0.8436478  )
        15        H      tau(  15) = (   0.5000000   0.0628759   0.0297873  )
        16        H      tau(  16) = (   0.5000000   1.6692431   0.8436478  )
        17        H      tau(  17) = (   0.6766000   1.3420459   1.5979337  )
        18        H      tau(  18) = (   0.3234000   0.3900732   0.7840732  )
        19        H      tau(  19) = (   0.6766000   0.3900732   0.7840732  )
        20        H      tau(  20) = (   0.3234000   1.3420459   1.5979337  )
        21        H      tau(  21) = (   0.1766000   0.4759863   1.5979337  )
        22        H      tau(  22) = (   0.8234000   1.2561327   0.7840732  )
        23        H      tau(  23) = (   0.1766000   1.2561327   0.7840732  )
        24        H      tau(  24) = (   0.8234000   0.4759863   1.5979337  )

     number of k points=   460

     Number of k-points >= 100: set verbosity='high' to print them.

     Dense  grid:   200273 G-vectors     FFT dimensions: (  54,  90,  90)

     Estimated max dynamical RAM per process >      52.43 MB

     Estimated total dynamical RAM >       6.41 GB

     Initial potential from superposition of free atoms

     starting charge      63.9998, renormalised to      64.0000
     Starting wfcs are   48 randomized atomic wfcs

     total cpu time spent up to now is        4.9 secs

     per-process dynamical memory:    59.7 Mb

     Self-consistent Calculation

     iteration #  1     ecut=    90.00 Ry     beta= 0.70
     Davidson diagonalization with overlap
     ethr =  1.00E-02,  avg # of iterations =  2.0

     total cpu time spent up to now is       14.0 secs

     total energy              =    -274.79706419 Ry
     estimated scf accuracy    <       2.80819239 Ry

     iteration #  2     ecut=    90.00 Ry     beta= 0.70
     Davidson diagonalization with overlap
     ethr =  4.39E-03,  avg # of iterations =  3.0

     total cpu time spent up to now is       26.2 secs

     total energy              =    -275.67926401 Ry
     estimated scf accuracy    <       1.65485153 Ry

     iteration #  3     ecut=    90.00 Ry     beta= 0.70
     Davidson diagonalization with overlap
     ethr =  2.59E-03,  avg # of iterations =  2.0

     total cpu time spent up to now is       35.3 secs

     total energy              =    -275.90076200 Ry
     estimated scf accuracy    <       0.06308859 Ry

     iteration #  4     ecut=    90.00 Ry     beta= 0.70
     Davidson diagonalization with overlap
     ethr =  9.86E-05,  avg # of iterations =  4.1

     total cpu time spent up to now is       49.1 secs

     total energy              =    -275.95011270 Ry
     estimated scf accuracy    <       0.07988720 Ry

     iteration #  5     ecut=    90.00 Ry     beta= 0.70
     Davidson diagonalization with overlap
     ethr =  9.86E-05,  avg # of iterations =  2.0

     total cpu time spent up to now is       57.3 secs

     total energy              =    -275.95302345 Ry
     estimated scf accuracy    <       0.01218044 Ry

     iteration #  6     ecut=    90.00 Ry     beta= 0.70
     Davidson diagonalization with overlap
     ethr =  1.90E-05,  avg # of iterations =  2.0

     total cpu time spent up to now is       65.9 secs

     total energy              =    -275.95308596 Ry
     estimated scf accuracy    <       0.00289848 Ry

     iteration #  7     ecut=    90.00 Ry     beta= 0.70
     Davidson diagonalization with overlap
     ethr =  4.53E-06,  avg # of iterations =  2.1

     total cpu time spent up to now is       76.2 secs

     total energy              =    -275.95446417 Ry
     estimated scf accuracy    <       0.00027037 Ry

     iteration #  8     ecut=    90.00 Ry     beta= 0.70
     Davidson diagonalization with overlap
     ethr =  4.22E-07,  avg # of iterations =  3.0

     total cpu time spent up to now is       86.3 secs

     total energy              =    -275.95440617 Ry
     estimated scf accuracy    <       0.00069673 Ry

     iteration #  9     ecut=    90.00 Ry     beta= 0.70
     Davidson diagonalization with overlap
     ethr =  4.22E-07,  avg # of iterations =  1.0

     total cpu time spent up to now is       93.1 secs

     total energy              =    -275.95422513 Ry
     estimated scf accuracy    <       0.00043250 Ry

     iteration # 10     ecut=    90.00 Ry     beta= 0.70
     Davidson diagonalization with overlap
     ethr =  4.22E-07,  avg # of iterations =  2.0

     total cpu time spent up to now is      103.0 secs

     total energy              =    -275.95427637 Ry
     estimated scf accuracy    <       0.00002655 Ry

     iteration # 11     ecut=    90.00 Ry     beta= 0.70
     Davidson diagonalization with overlap
     ethr =  4.15E-08,  avg # of iterations =  3.0

     total cpu time spent up to now is      114.2 secs

     total energy              =    -275.95428819 Ry
     estimated scf accuracy    <       0.00000069 Ry

     iteration # 12     ecut=    90.00 Ry     beta= 0.70
     Davidson diagonalization with overlap
     ethr =  1.07E-09,  avg # of iterations =  4.0

     total cpu time spent up to now is      126.7 secs

     total energy              =    -275.95428815 Ry
     estimated scf accuracy    <       0.00000116 Ry

     iteration # 13     ecut=    90.00 Ry     beta= 0.70
     Davidson diagonalization with overlap
     ethr =  1.07E-09,  avg # of iterations =  2.1

     total cpu time spent up to now is      136.7 secs

     End of self-consistent calculation

     Number of k-points >= 100: set verbosity='high' to print the bands.

     highest occupied level (ev):    -3.4241

!    total energy              =    -275.95428830 Ry
     estimated scf accuracy    <       0.00000006 Ry

     The total energy is the sum of the following terms:
     one-electron contribution =    -240.27389474 Ry
     hartree contribution      =     140.54230343 Ry
     xc contribution           =     -67.94318885 Ry
     ewald contribution        =    -108.27950814 Ry

     convergence has been achieved in  13 iterations

     Forces acting on atoms (cartesian axes, Ry/au):

     atom    1 type  2   force =     0.00000000   -0.05755895   -0.06322148
     atom    2 type  2   force =     0.00000000    0.05755896   -0.06322077
     atom    3 type  2   force =     0.00000000   -0.05755914   -0.06322179
     atom    4 type  2   force =     0.00000000    0.05755907   -0.06322097
     atom    5 type  2   force =     0.00000000    0.11217279   -0.07620686
     atom    6 type  2   force =     0.00000000   -0.11217259   -0.07620667
     atom    7 type  2   force =     0.00000000    0.11217290   -0.07620729
     atom    8 type  2   force =     0.00000000   -0.11217271   -0.07620702
     atom    9 type  1   force =     0.00000000   -0.00353527    0.03590418
     atom   10 type  1   force =     0.00000000    0.00353526    0.03590339
     atom   11 type  1   force =     0.00000000   -0.00353530    0.03590414
     atom   12 type  1   force =     0.00000000    0.00353528    0.03590338
     atom   13 type  1   force =     0.00000000    0.05913414    0.02209822
     atom   14 type  1   force =     0.00000000   -0.05913412    0.02209818
     atom   15 type  1   force =     0.00000000    0.05913409    0.02209819
     atom   16 type  1   force =     0.00000000   -0.05913401    0.02209813
     atom   17 type  1   force =     0.07030691   -0.05493077    0.04071323
     atom   18 type  1   force =    -0.07030674    0.05493066    0.04071314
     atom   19 type  1   force =     0.07030674    0.05493066    0.04071314
     atom   20 type  1   force =    -0.07030691   -0.05493077    0.04071323
     atom   21 type  1   force =     0.07030666   -0.05493067    0.04071311
     atom   22 type  1   force =    -0.07030653    0.05493058    0.04071305
     atom   23 type  1   force =     0.07030653    0.05493058    0.04071305
     atom   24 type  1   force =    -0.07030666   -0.05493067    0.04071311

     Total force =     0.448209     Total SCF correction =     0.000388


     Computing stress (Cartesian axis) and pressure

          total   stress  (Ry/bohr**3)                   (kbar)     P=       24.82
   0.00047182   0.00000000   0.00000000           69.41        0.00        0.00
   0.00000000  -0.00018898   0.00000000            0.00      -27.80        0.00
   0.00000000   0.00000000   0.00022328            0.00        0.00       32.85


     Writing all to output data dir ./iceIh/iceIh.save/ :
     XML data file, charge density, pseudopotentials, collected wavefunctions

     init_run     :      4.57s CPU      4.69s WALL (       1 calls)
     electrons    :    129.90s CPU    131.89s WALL (       1 calls)
     forces       :      0.58s CPU      0.60s WALL (       1 calls)
     stress       :      8.92s CPU      8.93s WALL (       1 calls)

     Called by init_run:
     wfcinit      :      4.13s CPU      4.20s WALL (       1 calls)
     potinit      :      0.04s CPU      0.05s WALL (       1 calls)
     hinit0       :      0.33s CPU      0.33s WALL (       1 calls)

     Called by electrons:
     c_bands      :    115.03s CPU    116.72s WALL (      13 calls)
     sum_band     :     14.63s CPU     14.81s WALL (      13 calls)
     v_of_rho     :      0.15s CPU      0.17s WALL (      14 calls)
     newd         :      0.03s CPU      0.04s WALL (      14 calls)
     mix_rho      :      0.03s CPU      0.04s WALL (      13 calls)

     Called by c_bands:
     init_us_2    :      1.89s CPU      1.94s WALL (    3335 calls)
     cegterg      :    110.71s CPU    111.69s WALL (    1495 calls)

     Called by *egterg:
     cdiaghg      :      8.92s CPU      8.96s WALL (    5246 calls)
     h_psi        :     87.22s CPU     88.13s WALL (    5361 calls)
     s_psi        :      3.49s CPU      3.51s WALL (    5361 calls)
     g_psi        :      0.31s CPU      0.31s WALL (    3751 calls)

     Called by h_psi:
     h_psi:calbec :      5.66s CPU      5.73s WALL (    5361 calls)
     vloc_psi     :     77.25s CPU     78.06s WALL (    5361 calls)
     add_vuspsi   :      3.63s CPU      3.66s WALL (    5361 calls)

     General routines
     calbec       :      7.47s CPU      7.55s WALL (    7431 calls)
     fft          :      0.39s CPU      0.40s WALL (     162 calls)
     ffts         :      0.01s CPU      0.01s WALL (      13 calls)
     fftw         :     80.95s CPU     81.79s WALL (  343684 calls)

     Parallel routines

     PWSCF        :   2m26.64s CPU   2m33.43s WALL


   This run was terminated on:   5:50: 5  21Mar2026            

=------------------------------------------------------------------------------=
   JOB DONE.
=------------------------------------------------------------------------------=
