
     Program PWSCF v.7.3.1 starts on 24Mar2026 at 20:37:37 

     This program is part of the open-source Quantum ESPRESSO suite
     for quantum simulation of materials; please cite
         "P. Giannozzi et al., J. Phys.:Condens. Matter 21 395502 (2009);
         "P. Giannozzi et al., J. Phys.:Condens. Matter 29 465901 (2017);
         "P. Giannozzi et al., J. Chem. Phys. 152 154105 (2020);
          URL http://www.quantum-espresso.org", 
     in publications or presentations arising from this work. More details at
     http://www.quantum-espresso.org/quote

     Parallel version (MPI), running on   128 processors

     MPI processes distributed on     1 nodes
     237123 MiB available memory on the printing compute node when the environment starts

     Waiting for input...
     Reading input from standard input

     Current dimensions of program PWSCF are:
     Max number of different atomic species (ntypx) = 10
     Max number of k-points (npk) =  40000
     Max angular momentum in pseudopotentials (lmaxx) =  4
     Found identity + ( -0.5000  0.5000 -0.0000) symmetry
     This is a supercell, fractional translations are disabled

     K-points division:     npool     =       4
     R & G space division:  proc/nbgrp/npool/nimage =      32
     Subspace diagonalization in iterative solution of the eigenvalue problem:
     a serial algorithm will be used


     Parallelization info
     --------------------
     sticks:   dense  smooth     PW     G-vecs:    dense   smooth      PW
     Min         113     113     31                 6331     6331     913
     Max         115     115     33                 6335     6335     915
     Sum        3619    3619    997               202657   202657   29253

     Using Slab Decomposition



     bravais-lattice index     =            8
     lattice parameter (alat)  =       8.5416  a.u.
     unit-cell volume          =    1757.0003 (a.u.)^3
     number of atoms/cell      =           24
     number of atomic types    =            2
     number of electrons       =        64.00
     number of Kohn-Sham states=           32
     kinetic-energy cutoff     =      90.0000  Ry
     charge density cutoff     =     360.0000  Ry
     scf convergence threshold =      1.0E-07
     mixing beta               =       0.7000
     number of iterations used =            8  plain     mixing
     Exchange-correlation=  SLA  PW   PBE  PBE
                           (   1   4   3   4   0   0   0)

     celldm(1)=   8.541577  celldm(2)=   1.732119  celldm(3)=   1.627721
     celldm(4)=   0.000000  celldm(5)=   0.000000  celldm(6)=   0.000000

     crystal axes: (cart. coord. in units of alat)
               a(1) = (   1.000000   0.000000   0.000000 )  
               a(2) = (   0.000000   1.732119   0.000000 )  
               a(3) = (   0.000000   0.000000   1.627721 )  

     reciprocal axes: (cart. coord. in units 2 pi/alat)
               b(1) = (  1.000000  0.000000  0.000000 )  
               b(2) = (  0.000000  0.577328  0.000000 )  
               b(3) = (  0.000000  0.000000  0.614356 )  


     PseudoPot. # 1 for H  read from file:
     ./H.pbe-van_ak.UPF
     MD5 check sum: 077eb6d537518a38cb46c6de387227b7
     Pseudo is Ultrasoft, Zval =  1.0
     Generated by new atomic code, or converted to UPF format
     Using radial grid of  615 points,  1 beta functions with: 
                l(1) =   0
     Q(r) pseudized with  8 coefficients,  rinner =    0.800

     PseudoPot. # 2 for O  read from file:
     ./O.pbe-van_ak.UPF
     MD5 check sum: 78c19812648e8988a0fe644b0f25305e
     Pseudo is Ultrasoft, Zval =  6.0
     Generated by new atomic code, or converted to UPF format
     Using radial grid of  737 points,  4 beta functions with: 
                l(1) =   0
                l(2) =   0
                l(3) =   1
                l(4) =   1
     Q(r) pseudized with  8 coefficients,  rinner =    0.800   0.800   0.800


     atomic species   valence    mass     pseudopotential
     H                 1.00     1.00800     H ( 1.00)
     O                 6.00    16.00000     O ( 1.00)

      2 Sym. Ops. (no inversion) found



   Cartesian axes

     site n.     atom                  positions (alat units)
         1        O      tau(   1) = (   0.0000000   1.1484866   0.0984416  )
         2        O      tau(   2) = (   0.0000000   0.5836324   0.9123021  )
         3        O      tau(   3) = (   0.5000000   0.2824271   0.0984415  )
         4        O      tau(   4) = (   0.5000000   1.4496920   0.9123021  )
         5        O      tau(   5) = (   0.5000000   1.4402433   1.5187349  )
         6        O      tau(   6) = (   0.5000000   0.2918758   0.7048744  )
         7        O      tau(   7) = (   0.0000000   0.5741838   1.5187348  )
         8        O      tau(   8) = (   0.0000000   1.1579353   0.7048743  )
         9        H      tau(   9) = (   0.0000000   1.1487418   0.3216685  )
        10        H      tau(  10) = (   0.0000000   0.5833772   1.1355290  )
        11        H      tau(  11) = (   0.5000000   0.2826823   0.3216685  )
        12        H      tau(  12) = (   0.5000000   1.4494367   1.1355290  )
        13        H      tau(  13) = (   0.0000000   0.9333594   0.0315143  )
        14        H      tau(  14) = (   0.0000000   0.7987597   0.8453748  )
        15        H      tau(  15) = (   0.5000000   0.0672998   0.0315143  )
        16        H      tau(  16) = (   0.5000000   1.6648192   0.8453748  )
        17        H      tau(  17) = (   0.6820699   1.3365463   1.6012691  )
        18        H      tau(  18) = (   0.3179301   0.3955728   0.7874086  )
        19        H      tau(  19) = (   0.6820699   0.3955728   0.7874086  )
        20        H      tau(  20) = (   0.3179301   1.3365463   1.6012691  )
        21        H      tau(  21) = (   0.1820699   0.4704867   1.6012691  )
        22        H      tau(  22) = (   0.8179301   1.2616323   0.7874086  )
        23        H      tau(  23) = (   0.1820699   1.2616323   0.7874086  )
        24        H      tau(  24) = (   0.8179301   0.4704867   1.6012691  )

     number of k points=   460

     Number of k-points >= 100: set verbosity='high' to print them.

     Dense  grid:   202657 G-vectors     FFT dimensions: (  54,  90,  90)

     Estimated max dynamical RAM per process >      53.01 MB

     Estimated total dynamical RAM >       6.48 GB

     Initial potential from superposition of free atoms

     starting charge      63.9998, renormalised to      64.0000
     Starting wfcs are   48 randomized atomic wfcs

     total cpu time spent up to now is        5.1 secs

     per-process dynamical memory:    60.6 Mb

     Self-consistent Calculation

     iteration #  1     ecut=    90.00 Ry     beta= 0.70
     Davidson diagonalization with overlap
     ethr =  1.00E-02,  avg # of iterations =  2.0

     total cpu time spent up to now is       14.4 secs

     total energy              =    -274.93692120 Ry
     estimated scf accuracy    <       2.56551173 Ry

     iteration #  2     ecut=    90.00 Ry     beta= 0.70
     Davidson diagonalization with overlap
     ethr =  4.01E-03,  avg # of iterations =  3.0

     total cpu time spent up to now is       26.7 secs

     total energy              =    -275.74222022 Ry
     estimated scf accuracy    <       1.63289991 Ry

     iteration #  3     ecut=    90.00 Ry     beta= 0.70
     Davidson diagonalization with overlap
     ethr =  2.55E-03,  avg # of iterations =  2.0

     total cpu time spent up to now is       36.1 secs

     total energy              =    -275.95866954 Ry
     estimated scf accuracy    <       0.06570604 Ry

     iteration #  4     ecut=    90.00 Ry     beta= 0.70
     Davidson diagonalization with overlap
     ethr =  1.03E-04,  avg # of iterations =  4.0

     total cpu time spent up to now is       50.0 secs

     total energy              =    -276.00962501 Ry
     estimated scf accuracy    <       0.07967601 Ry

     iteration #  5     ecut=    90.00 Ry     beta= 0.70
     Davidson diagonalization with overlap
     ethr =  1.03E-04,  avg # of iterations =  2.0

     total cpu time spent up to now is       58.0 secs

     total energy              =    -276.01277815 Ry
     estimated scf accuracy    <       0.01230753 Ry

     iteration #  6     ecut=    90.00 Ry     beta= 0.70
     Davidson diagonalization with overlap
     ethr =  1.92E-05,  avg # of iterations =  2.0

     total cpu time spent up to now is       66.8 secs

     total energy              =    -276.01205699 Ry
     estimated scf accuracy    <       0.00388798 Ry

     iteration #  7     ecut=    90.00 Ry     beta= 0.70
     Davidson diagonalization with overlap
     ethr =  6.07E-06,  avg # of iterations =  2.9

     total cpu time spent up to now is       77.5 secs

     total energy              =    -276.01394667 Ry
     estimated scf accuracy    <       0.00032540 Ry

     iteration #  8     ecut=    90.00 Ry     beta= 0.70
     Davidson diagonalization with overlap
     ethr =  5.08E-07,  avg # of iterations =  3.0

     total cpu time spent up to now is       89.4 secs

     total energy              =    -276.01370256 Ry
     estimated scf accuracy    <       0.00137510 Ry

     iteration #  9     ecut=    90.00 Ry     beta= 0.70
     Davidson diagonalization with overlap
     ethr =  5.08E-07,  avg # of iterations =  2.0

     total cpu time spent up to now is       99.1 secs

     total energy              =    -276.01357529 Ry
     estimated scf accuracy    <       0.00045641 Ry

     iteration # 10     ecut=    90.00 Ry     beta= 0.70
     Davidson diagonalization with overlap
     ethr =  5.08E-07,  avg # of iterations =  2.0

     total cpu time spent up to now is      108.7 secs

     total energy              =    -276.01363642 Ry
     estimated scf accuracy    <       0.00003346 Ry

     iteration # 11     ecut=    90.00 Ry     beta= 0.70
     Davidson diagonalization with overlap
     ethr =  5.23E-08,  avg # of iterations =  3.0

     total cpu time spent up to now is      120.3 secs

     total energy              =    -276.01365358 Ry
     estimated scf accuracy    <       0.00000055 Ry

     iteration # 12     ecut=    90.00 Ry     beta= 0.70
     Davidson diagonalization with overlap
     ethr =  8.59E-10,  avg # of iterations =  4.0

     total cpu time spent up to now is      134.2 secs

     total energy              =    -276.01365422 Ry
     estimated scf accuracy    <       0.00000046 Ry

     iteration # 13     ecut=    90.00 Ry     beta= 0.70
     Davidson diagonalization with overlap
     ethr =  7.21E-10,  avg # of iterations =  1.0

     total cpu time spent up to now is      141.1 secs

     total energy              =    -276.01365415 Ry
     estimated scf accuracy    <       0.00000013 Ry

     iteration # 14     ecut=    90.00 Ry     beta= 0.70
     Davidson diagonalization with overlap
     ethr =  2.03E-10,  avg # of iterations =  3.7

     total cpu time spent up to now is      154.3 secs

     total energy              =    -276.01365421 Ry
     estimated scf accuracy    <       0.00000025 Ry

     iteration # 15     ecut=    90.00 Ry     beta= 0.70
     Davidson diagonalization with overlap
     ethr =  2.03E-10,  avg # of iterations =  2.0

     total cpu time spent up to now is      163.6 secs

     End of self-consistent calculation

     Number of k-points >= 100: set verbosity='high' to print the bands.

     highest occupied level (ev):    -3.5090

!    total energy              =    -276.01365419 Ry
     estimated scf accuracy    <       0.00000005 Ry

     The total energy is the sum of the following terms:
     one-electron contribution =    -237.24520743 Ry
     hartree contribution      =     139.09477655 Ry
     xc contribution           =     -67.49376072 Ry
     ewald contribution        =    -110.36946259 Ry

     convergence has been achieved in  15 iterations

     Forces acting on atoms (cartesian axes, Ry/au):

     atom    1 type  2   force =     0.00000000   -0.01110229   -0.00028062
     atom    2 type  2   force =     0.00000000    0.01110219   -0.00028063
     atom    3 type  2   force =     0.00000000   -0.01110236   -0.00028064
     atom    4 type  2   force =     0.00000000    0.01110221   -0.00028064
     atom    5 type  2   force =     0.00000000   -0.00855748    0.01655760
     atom    6 type  2   force =     0.00000000    0.00855744    0.01655760
     atom    7 type  2   force =     0.00000000   -0.00855753    0.01655765
     atom    8 type  2   force =     0.00000000    0.00855749    0.01655765
     atom    9 type  1   force =     0.00000000   -0.00188818   -0.00704054
     atom   10 type  1   force =     0.00000000    0.00188819   -0.00704047
     atom   11 type  1   force =     0.00000000   -0.00188818   -0.00704054
     atom   12 type  1   force =     0.00000000    0.00188820   -0.00704051
     atom   13 type  1   force =     0.00000000    0.01830403    0.00531980
     atom   14 type  1   force =     0.00000000   -0.01830394    0.00531978
     atom   15 type  1   force =     0.00000000    0.01830411    0.00531983
     atom   16 type  1   force =     0.00000000   -0.01830399    0.00531980
     atom   17 type  1   force =    -0.01934321    0.00195363   -0.00727813
     atom   18 type  1   force =     0.01934317   -0.00195361   -0.00727812
     atom   19 type  1   force =    -0.01934317   -0.00195361   -0.00727812
     atom   20 type  1   force =     0.01934321    0.00195363   -0.00727813
     atom   21 type  1   force =    -0.01934317    0.00195365   -0.00727815
     atom   22 type  1   force =     0.01934313   -0.00195363   -0.00727815
     atom   23 type  1   force =    -0.01934313   -0.00195363   -0.00727815
     atom   24 type  1   force =     0.01934317    0.00195365   -0.00727815

     Total force =     0.083644     Total SCF correction =     0.000154


     Computing stress (Cartesian axis) and pressure

          total   stress  (Ry/bohr**3)                   (kbar)     P=      -28.67
  -0.00024905   0.00000000   0.00000000          -36.64        0.00        0.00
   0.00000000  -0.00019840  -0.00000000            0.00      -29.19       -0.00
   0.00000000  -0.00000000  -0.00013717            0.00       -0.00      -20.18


     Writing all to output data dir ./iceIh/iceIh.save/ :
     XML data file, charge density, pseudopotentials, collected wavefunctions

     init_run     :      4.80s CPU      4.89s WALL (       1 calls)
     electrons    :    156.30s CPU    158.58s WALL (       1 calls)
     forces       :      0.59s CPU      0.60s WALL (       1 calls)
     stress       :      9.05s CPU      9.08s WALL (       1 calls)

     Called by init_run:
     wfcinit      :      4.36s CPU      4.40s WALL (       1 calls)
     potinit      :      0.03s CPU      0.04s WALL (       1 calls)
     hinit0       :      0.33s CPU      0.34s WALL (       1 calls)

     Called by electrons:
     c_bands      :    138.83s CPU    140.83s WALL (      15 calls)
     sum_band     :     17.20s CPU     17.37s WALL (      15 calls)
     v_of_rho     :      0.17s CPU      0.19s WALL (      16 calls)
     newd         :      0.03s CPU      0.04s WALL (      16 calls)
     mix_rho      :      0.04s CPU      0.04s WALL (      15 calls)

     Called by c_bands:
     init_us_2    :      2.13s CPU      2.19s WALL (    3795 calls)
     cegterg      :    134.72s CPU    135.88s WALL (    1725 calls)

     Called by *egterg:
     cdiaghg      :     10.67s CPU     10.71s WALL (    6186 calls)
     h_psi        :    105.57s CPU    106.63s WALL (    6301 calls)
     s_psi        :      4.16s CPU      4.18s WALL (    6301 calls)
     g_psi        :      0.38s CPU      0.38s WALL (    4461 calls)

     Called by h_psi:
     h_psi:calbec :      6.85s CPU      6.91s WALL (    6301 calls)
     vloc_psi     :     93.54s CPU     94.50s WALL (    6301 calls)
     add_vuspsi   :      4.37s CPU      4.40s WALL (    6301 calls)

     General routines
     calbec       :      9.04s CPU      9.13s WALL (    8601 calls)
     fft          :      0.41s CPU      0.42s WALL (     184 calls)
     ffts         :      0.01s CPU      0.01s WALL (      15 calls)
     fftw         :     97.76s CPU     98.71s WALL (  406984 calls)

     Parallel routines

     PWSCF        :   2m53.15s CPU   3m 2.30s WALL


   This run was terminated on:  20:40:39  24Mar2026            

=------------------------------------------------------------------------------=
   JOB DONE.
=------------------------------------------------------------------------------=
