
     Program PWSCF v.7.3.1 starts on  1Apr2026 at 13:58:59 

     This program is part of the open-source Quantum ESPRESSO suite
     for quantum simulation of materials; please cite
         "P. Giannozzi et al., J. Phys.:Condens. Matter 21 395502 (2009);
         "P. Giannozzi et al., J. Phys.:Condens. Matter 29 465901 (2017);
         "P. Giannozzi et al., J. Chem. Phys. 152 154105 (2020);
          URL http://www.quantum-espresso.org", 
     in publications or presentations arising from this work. More details at
     http://www.quantum-espresso.org/quote

     Parallel version (MPI), running on   128 processors

     MPI processes distributed on     1 nodes
     236660 MiB available memory on the printing compute node when the environment starts

     Waiting for input...
     Reading input from standard input

     Current dimensions of program PWSCF are:
     Max number of different atomic species (ntypx) = 10
     Max number of k-points (npk) =  40000
     Max angular momentum in pseudopotentials (lmaxx) =  4
     Found identity + ( -0.5000 -0.5000  0.0000) symmetry
     This is a supercell, fractional translations are disabled

     K-points division:     npool     =       4
     R & G space division:  proc/nbgrp/npool/nimage =      32
     Subspace diagonalization in iterative solution of the eigenvalue problem:
     a serial algorithm will be used


     Parallelization info
     --------------------
     sticks:   dense  smooth     PW     G-vecs:    dense   smooth      PW
     Min         113     113     31                 6423     6423     925
     Max         114     114     32                 6432     6432     930
     Sum        3639    3639   1005               205711   205711   29657

     Using Slab Decomposition



     bravais-lattice index     =            8
     lattice parameter (alat)  =       8.5841  a.u.
     unit-cell volume          =    1783.3812 (a.u.)^3
     number of atoms/cell      =           24
     number of atomic types    =            2
     number of electrons       =        64.00
     number of Kohn-Sham states=           32
     kinetic-energy cutoff     =      90.0000  Ry
     charge density cutoff     =     360.0000  Ry
     scf convergence threshold =      1.0E-07
     mixing beta               =       0.7000
     number of iterations used =            8  plain     mixing
     energy convergence thresh.=      1.0E-04
     force convergence thresh. =      1.0E-03
     Exchange-correlation=  SLA  PW   PBE  PBE
                           (   1   4   3   4   0   0   0)
     nstep                     =           50


     celldm(1)=   8.584114  celldm(2)=   1.732119  celldm(3)=   1.627721
     celldm(4)=   0.000000  celldm(5)=   0.000000  celldm(6)=   0.000000

     crystal axes: (cart. coord. in units of alat)
               a(1) = (   1.000000   0.000000   0.000000 )  
               a(2) = (   0.000000   1.732119   0.000000 )  
               a(3) = (   0.000000   0.000000   1.627721 )  

     reciprocal axes: (cart. coord. in units 2 pi/alat)
               b(1) = (  1.000000  0.000000  0.000000 )  
               b(2) = (  0.000000  0.577328  0.000000 )  
               b(3) = (  0.000000  0.000000  0.614356 )  


     PseudoPot. # 1 for H  read from file:
     ./H.pbe-van_ak.UPF
     MD5 check sum: 077eb6d537518a38cb46c6de387227b7
     Pseudo is Ultrasoft, Zval =  1.0
     Generated by new atomic code, or converted to UPF format
     Using radial grid of  615 points,  1 beta functions with: 
                l(1) =   0
     Q(r) pseudized with  8 coefficients,  rinner =    0.800

     PseudoPot. # 2 for O  read from file:
     ./O.pbe-van_ak.UPF
     MD5 check sum: 78c19812648e8988a0fe644b0f25305e
     Pseudo is Ultrasoft, Zval =  6.0
     Generated by new atomic code, or converted to UPF format
     Using radial grid of  737 points,  4 beta functions with: 
                l(1) =   0
                l(2) =   0
                l(3) =   1
                l(4) =   1
     Q(r) pseudized with  8 coefficients,  rinner =    0.800   0.800   0.800


     atomic species   valence    mass     pseudopotential
     H                 1.00     1.00800     H ( 1.00)
     O                 6.00    16.00000     O ( 1.00)

      2 Sym. Ops. (no inversion) found



   Cartesian axes

     site n.     atom                  positions (alat units)
         1        O      tau(   1) = (   0.0000000   1.1515127   0.1027092  )
         2        O      tau(   2) = (   0.0000000   0.5806063   0.9165697  )
         3        O      tau(   3) = (   0.5000000   0.2854532   0.1027092  )
         4        O      tau(   4) = (   0.5000000   1.4466659   0.9165697  )
         5        O      tau(   5) = (   0.5000000   1.4298643   1.5250118  )
         6        O      tau(   6) = (   0.5000000   0.3022548   0.7111513  )
         7        O      tau(   7) = (   0.0000000   0.5638048   1.5250118  )
         8        O      tau(   8) = (   0.0000000   1.1683143   0.7111513  )
         9        H      tau(   9) = (   0.0000000   1.1494343   0.3195216  )
        10        H      tau(  10) = (   0.0000000   0.5826848   1.1333822  )
        11        H      tau(  11) = (   0.5000000   0.2833747   0.3195216  )
        12        H      tau(  12) = (   0.5000000   1.4487443   1.1333822  )
        13        H      tau(  13) = (   0.0000000   0.9289355   0.0297873  )
        14        H      tau(  14) = (   0.0000000   0.8031836   0.8436478  )
        15        H      tau(  15) = (   0.5000000   0.0628759   0.0297873  )
        16        H      tau(  16) = (   0.5000000   1.6692431   0.8436478  )
        17        H      tau(  17) = (   0.6766000   1.3420459   1.5979337  )
        18        H      tau(  18) = (   0.3234000   0.3900732   0.7840732  )
        19        H      tau(  19) = (   0.6766000   0.3900732   0.7840732  )
        20        H      tau(  20) = (   0.3234000   1.3420459   1.5979337  )
        21        H      tau(  21) = (   0.1766000   0.4759863   1.5979337  )
        22        H      tau(  22) = (   0.8234000   1.2561327   0.7840732  )
        23        H      tau(  23) = (   0.1766000   1.2561327   0.7840732  )
        24        H      tau(  24) = (   0.8234000   0.4759863   1.5979337  )

     number of k points=   460

     Number of k-points >= 100: set verbosity='high' to print them.

     Dense  grid:   205711 G-vectors     FFT dimensions: (  54,  90,  90)

     Estimated max dynamical RAM per process >      53.78 MB

     Estimated total dynamical RAM >       6.58 GB

     Initial potential from superposition of free atoms

     starting charge      63.9998, renormalised to      64.0000
     Starting wfcs are   48 randomized atomic wfcs

     total cpu time spent up to now is        5.1 secs

     per-process dynamical memory:    61.2 Mb

     Self-consistent Calculation

     iteration #  1     ecut=    90.00 Ry     beta= 0.70
     Davidson diagonalization with overlap
     ethr =  1.00E-02,  avg # of iterations =  2.0

     total cpu time spent up to now is       14.4 secs

     total energy              =    -274.80754577 Ry
     estimated scf accuracy    <       2.77311690 Ry

     iteration #  2     ecut=    90.00 Ry     beta= 0.70
     Davidson diagonalization with overlap
     ethr =  4.33E-03,  avg # of iterations =  3.0

     total cpu time spent up to now is       26.7 secs

     total energy              =    -275.67164429 Ry
     estimated scf accuracy    <       1.71668611 Ry

     iteration #  3     ecut=    90.00 Ry     beta= 0.70
     Davidson diagonalization with overlap
     ethr =  2.68E-03,  avg # of iterations =  2.0

     total cpu time spent up to now is       36.0 secs

     total energy              =    -275.90442573 Ry
     estimated scf accuracy    <       0.06556515 Ry

     iteration #  4     ecut=    90.00 Ry     beta= 0.70
     Davidson diagonalization with overlap
     ethr =  1.02E-04,  avg # of iterations =  4.0

     total cpu time spent up to now is       50.0 secs

     total energy              =    -275.95574815 Ry
     estimated scf accuracy    <       0.08271455 Ry

     iteration #  5     ecut=    90.00 Ry     beta= 0.70
     Davidson diagonalization with overlap
     ethr =  1.02E-04,  avg # of iterations =  2.0

     total cpu time spent up to now is       58.3 secs

     total energy              =    -275.95788236 Ry
     estimated scf accuracy    <       0.01212052 Ry

     iteration #  6     ecut=    90.00 Ry     beta= 0.70
     Davidson diagonalization with overlap
     ethr =  1.89E-05,  avg # of iterations =  2.0

     negative rho (up, down):  6.006E-08 0.000E+00

     total cpu time spent up to now is       67.8 secs

     total energy              =    -275.95942403 Ry
     estimated scf accuracy    <       0.00129568 Ry

     iteration #  7     ecut=    90.00 Ry     beta= 0.70
     Davidson diagonalization with overlap
     ethr =  2.02E-06,  avg # of iterations =  3.0

     negative rho (up, down):  4.998E-08 0.000E+00

     total cpu time spent up to now is       80.0 secs

     total energy              =    -275.96059160 Ry
     estimated scf accuracy    <       0.00089000 Ry

     iteration #  8     ecut=    90.00 Ry     beta= 0.70
     Davidson diagonalization with overlap
     ethr =  1.39E-06,  avg # of iterations =  1.0

     negative rho (up, down):  1.662E-08 0.000E+00

     total cpu time spent up to now is       86.9 secs

     total energy              =    -275.96039288 Ry
     estimated scf accuracy    <       0.00111561 Ry

     iteration #  9     ecut=    90.00 Ry     beta= 0.70
     Davidson diagonalization with overlap
     ethr =  1.39E-06,  avg # of iterations =  1.0

     total cpu time spent up to now is       93.8 secs

     total energy              =    -275.96015135 Ry
     estimated scf accuracy    <       0.00064957 Ry

     iteration # 10     ecut=    90.00 Ry     beta= 0.70
     Davidson diagonalization with overlap
     ethr =  1.01E-06,  avg # of iterations =  2.0

     total cpu time spent up to now is      102.6 secs

     total energy              =    -275.96020558 Ry
     estimated scf accuracy    <       0.00006871 Ry

     iteration # 11     ecut=    90.00 Ry     beta= 0.70
     Davidson diagonalization with overlap
     ethr =  1.07E-07,  avg # of iterations =  3.0

     total cpu time spent up to now is      112.7 secs

     total energy              =    -275.96022204 Ry
     estimated scf accuracy    <       0.00000616 Ry

     iteration # 12     ecut=    90.00 Ry     beta= 0.70
     Davidson diagonalization with overlap
     ethr =  9.63E-09,  avg # of iterations =  3.7

     total cpu time spent up to now is      125.3 secs

     End of self-consistent calculation

     Number of k-points >= 100: set verbosity='high' to print the bands.

     highest occupied level (ev):    -3.5242

!    total energy              =    -275.96022524 Ry
     estimated scf accuracy    <       0.00000004 Ry

     The total energy is the sum of the following terms:
     one-electron contribution =    -242.09663254 Ry
     hartree contribution      =     141.23318101 Ry
     xc contribution           =     -67.78308875 Ry
     ewald contribution        =    -107.31368497 Ry

     convergence has been achieved in  12 iterations

     Forces acting on atoms (cartesian axes, Ry/au):

     atom    1 type  2   force =     0.00000000   -0.06575839   -0.05125155
     atom    2 type  2   force =     0.00000000    0.06575533   -0.05125369
     atom    3 type  2   force =     0.00000000   -0.06575719   -0.05125303
     atom    4 type  2   force =     0.00000000    0.06575627   -0.05125319
     atom    5 type  2   force =     0.00000000    0.09735302   -0.06405786
     atom    6 type  2   force =     0.00000000   -0.09735121   -0.06405581
     atom    7 type  2   force =     0.00000000    0.09735204   -0.06405785
     atom    8 type  2   force =     0.00000000   -0.09735145   -0.06405621
     atom    9 type  1   force =     0.00000000   -0.00408487    0.02032726
     atom   10 type  1   force =     0.00000000    0.00408507    0.02032563
     atom   11 type  1   force =     0.00000000   -0.00408481    0.02032656
     atom   12 type  1   force =     0.00000000    0.00408509    0.02032548
     atom   13 type  1   force =     0.00000000    0.06783936    0.02577380
     atom   14 type  1   force =     0.00000000   -0.06783945    0.02577374
     atom   15 type  1   force =     0.00000000    0.06783993    0.02577385
     atom   16 type  1   force =     0.00000000   -0.06783953    0.02577373
     atom   17 type  1   force =     0.05405001   -0.04747667    0.03460494
     atom   18 type  1   force =    -0.05404969    0.04747682    0.03460486
     atom   19 type  1   force =     0.05404969    0.04747682    0.03460486
     atom   20 type  1   force =    -0.05405001   -0.04747667    0.03460494
     atom   21 type  1   force =     0.05404996   -0.04747668    0.03460493
     atom   22 type  1   force =    -0.05404977    0.04747691    0.03460485
     atom   23 type  1   force =     0.05404977    0.04747691    0.03460485
     atom   24 type  1   force =    -0.05404996   -0.04747668    0.03460493

     Total force =     0.394835     Total SCF correction =     0.000282


     Computing stress (Cartesian axis) and pressure

          total   stress  (Ry/bohr**3)                   (kbar)     P=        6.81
   0.00032115   0.00000000   0.00000000           47.24        0.00        0.00
   0.00000000  -0.00028049   0.00000000            0.00      -41.26        0.00
   0.00000000   0.00000000   0.00009831            0.00        0.00       14.46


     BFGS Geometry Optimization
     Energy error            =      0.0E+00 Ry
     Gradient error          =      9.7E-02 Ry/Bohr

     number of scf cycles    =   1
     number of bfgs steps    =   0

     energy             new  =    -275.9602252433 Ry

     new trust radius        =       0.1165376306 bohr
     new conv_thr            =       0.0000001000 Ry


ATOMIC_POSITIONS (crystal)
O                0.0000000000        0.6603773855        0.0594319840
O                0.0000000000        0.3396224092        0.5594318081
O                0.5000000000        0.1603774662        0.0594318783
O                0.5000000000        0.8396224725        0.5594318438
O                0.5000000000        0.8320475212        0.9323154675
O                0.5000000000        0.1679526005        0.4323155840
O                0.0000000000        0.3320474552        0.9323154678
O                0.0000000000        0.6679525841        0.4323155554
H                0.0000000000        0.6633252989        0.1977548001
H                0.0000000000        0.3366747146        0.6977547136
H                0.5000000000        0.1633253027        0.1977547501
H                0.5000000000        0.8366747159        0.6977547028
H                0.0000000000        0.5408625630        0.0201446041
H                0.0000000000        0.4591374310        0.5201445957
H                0.5000000000        0.0408626012        0.0201446081
H                0.5000000000        0.9591374255        0.5201445955
H                0.6828964942        0.7716069438        0.9841766414
H                0.3171035429        0.2283930668        0.4841766362
H                0.6828964571        0.2283930668        0.4841766362
H                0.3171035058        0.7716069438        0.9841766414
H                0.1828964890        0.2716069430        0.9841766407
H                0.8171035333        0.7283930729        0.4841766352
H                0.1828964667        0.7283930729        0.4841766352
H                0.8171035110        0.2716069430        0.9841766407



     Writing config-only to output data dir ./iceIh/iceIh.save/ :
     XML data file
     NEW-OLD atomic charge density approx. for the potential

     negative rho (up, down):  2.852E-08 0.000E+00

     total cpu time spent up to now is      135.3 secs

     per-process dynamical memory:    68.4 Mb

     Self-consistent Calculation

     iteration #  1     ecut=    90.00 Ry     beta= 0.70
     Davidson diagonalization with overlap
     ethr =  1.00E-06,  avg # of iterations = 10.0

     negative rho (up, down):  8.324E-08 0.000E+00

     total cpu time spent up to now is      162.5 secs

     total energy              =    -275.98731185 Ry
     estimated scf accuracy    <       0.04306522 Ry

     iteration #  2     ecut=    90.00 Ry     beta= 0.70
     Davidson diagonalization with overlap
     ethr =  6.73E-05,  avg # of iterations =  3.0

     negative rho (up, down):  1.757E-07 0.000E+00

     total cpu time spent up to now is      174.0 secs

     total energy              =    -275.99617823 Ry
     estimated scf accuracy    <       0.02224392 Ry

     iteration #  3     ecut=    90.00 Ry     beta= 0.70
     Davidson diagonalization with overlap
     ethr =  3.48E-05,  avg # of iterations =  2.9

     negative rho (up, down):  2.237E-07 0.000E+00

     total cpu time spent up to now is      184.0 secs

     total energy              =    -276.00119582 Ry
     estimated scf accuracy    <       0.00033705 Ry

     iteration #  4     ecut=    90.00 Ry     beta= 0.70
     Davidson diagonalization with overlap
     ethr =  5.27E-07,  avg # of iterations =  5.0

     negative rho (up, down):  2.205E-07 0.000E+00

     total cpu time spent up to now is      198.6 secs

     total energy              =    -276.00130141 Ry
     estimated scf accuracy    <       0.00058505 Ry

     iteration #  5     ecut=    90.00 Ry     beta= 0.70
     Davidson diagonalization with overlap
     ethr =  5.27E-07,  avg # of iterations =  3.0

     negative rho (up, down):  2.279E-07 0.000E+00

     total cpu time spent up to now is      210.0 secs

     total energy              =    -276.00144894 Ry
     estimated scf accuracy    <       0.00001587 Ry

     iteration #  6     ecut=    90.00 Ry     beta= 0.70
     Davidson diagonalization with overlap
     ethr =  2.48E-08,  avg # of iterations =  3.1

     negative rho (up, down):  2.300E-07 0.000E+00

     total cpu time spent up to now is      222.0 secs

     total energy              =    -276.00144689 Ry
     estimated scf accuracy    <       0.00002949 Ry

     iteration #  7     ecut=    90.00 Ry     beta= 0.70
     Davidson diagonalization with overlap
     ethr =  2.48E-08,  avg # of iterations =  2.0

     negative rho (up, down):  2.308E-07 0.000E+00

     total cpu time spent up to now is      231.1 secs

     total energy              =    -276.00144670 Ry
     estimated scf accuracy    <       0.00000480 Ry

     iteration #  8     ecut=    90.00 Ry     beta= 0.70
     Davidson diagonalization with overlap
     ethr =  7.50E-09,  avg # of iterations =  3.3

     negative rho (up, down):  2.307E-07 0.000E+00

     total cpu time spent up to now is      243.2 secs

     total energy              =    -276.00144890 Ry
     estimated scf accuracy    <       0.00000111 Ry

     iteration #  9     ecut=    90.00 Ry     beta= 0.70
     Davidson diagonalization with overlap
     ethr =  1.73E-09,  avg # of iterations =  2.0

     negative rho (up, down):  2.305E-07 0.000E+00

     total cpu time spent up to now is      251.6 secs

     total energy              =    -276.00144888 Ry
     estimated scf accuracy    <       0.00000038 Ry

     iteration # 10     ecut=    90.00 Ry     beta= 0.70
     Davidson diagonalization with overlap
     ethr =  5.88E-10,  avg # of iterations =  2.0

     negative rho (up, down):  2.302E-07 0.000E+00

     total cpu time spent up to now is      259.9 secs

     End of self-consistent calculation

     Number of k-points >= 100: set verbosity='high' to print the bands.

     highest occupied level (ev):    -3.5770

!    total energy              =    -276.00144885 Ry
     estimated scf accuracy    <       0.00000007 Ry

     The total energy is the sum of the following terms:
     one-electron contribution =    -238.68122657 Ry
     hartree contribution      =     139.67338665 Ry
     xc contribution           =     -67.44811799 Ry
     ewald contribution        =    -109.54549094 Ry

     convergence has been achieved in  10 iterations

     Forces acting on atoms (cartesian axes, Ry/au):

     atom    1 type  2   force =     0.00000000    0.04243834    0.03320092
     atom    2 type  2   force =     0.00000000   -0.04243584    0.03320149
     atom    3 type  2   force =     0.00000000    0.04243799    0.03320166
     atom    4 type  2   force =     0.00000000   -0.04243673    0.03320121
     atom    5 type  2   force =     0.00000000   -0.02828427    0.02811615
     atom    6 type  2   force =     0.00000000    0.02828291    0.02811505
     atom    7 type  2   force =     0.00000000   -0.02828381    0.02811586
     atom    8 type  2   force =     0.00000000    0.02828319    0.02811537
     atom    9 type  1   force =     0.00000000   -0.00531800   -0.02398172
     atom   10 type  1   force =     0.00000000    0.00531751   -0.02398238
     atom   11 type  1   force =     0.00000000   -0.00531779   -0.02398218
     atom   12 type  1   force =     0.00000000    0.00531766   -0.02398201
     atom   13 type  1   force =     0.00000000   -0.02688209   -0.00706859
     atom   14 type  1   force =     0.00000000    0.02688027   -0.00706842
     atom   15 type  1   force =     0.00000000   -0.02688196   -0.00706874
     atom   16 type  1   force =     0.00000000    0.02688099   -0.00706853
     atom   17 type  1   force =    -0.03353085    0.00929809   -0.01513338
     atom   18 type  1   force =     0.03353014   -0.00929752   -0.01513290
     atom   19 type  1   force =    -0.03353014   -0.00929752   -0.01513290
     atom   20 type  1   force =     0.03353085    0.00929809   -0.01513338
     atom   21 type  1   force =    -0.03353064    0.00929789   -0.01513328
     atom   22 type  1   force =     0.03353030   -0.00929764   -0.01513300
     atom   23 type  1   force =    -0.03353030   -0.00929764   -0.01513300
     atom   24 type  1   force =     0.03353064    0.00929789   -0.01513328

     Total force =     0.187074     Total SCF correction =     0.000256


     Computing stress (Cartesian axis) and pressure

          total   stress  (Ry/bohr**3)                   (kbar)     P=      -31.71
  -0.00036842   0.00000000   0.00000000          -54.20        0.00        0.00
   0.00000000  -0.00002688   0.00000000            0.00       -3.95        0.00
   0.00000000   0.00000000  -0.00025134            0.00        0.00      -36.97

     Energy error            =      4.1E-02 Ry
     Gradient error          =      4.2E-02 Ry/Bohr

     number of scf cycles    =   2
     number of bfgs steps    =   1

     energy             old  =    -275.9602252433 Ry
     energy             new  =    -276.0014488536 Ry

     CASE: energy            _new < energy            _old

     new trust radius        =       0.0361550306 bohr
     new conv_thr            =       0.0000000424 Ry


ATOMIC_POSITIONS (crystal)
O                0.0000000000        0.6622924473        0.0610265104
O                0.0000000000        0.3377074613        0.5610263606
O                0.5000000000        0.1622925130        0.0610264400
O                0.5000000000        0.8377074840        0.5610263825
O                0.5000000000        0.8308278994        0.9336424951
O                0.5000000000        0.1691721605        0.4336425591
O                0.0000000000        0.3308278541        0.9336424807
O                0.0000000000        0.6691721569        0.4336425461
H                0.0000000000        0.6630722582        0.1965842145
H                0.0000000000        0.3369277329        0.6965840934
H                0.5000000000        0.1630722717        0.1965841409
H                0.5000000000        0.8369277410        0.6965841007
H                0.0000000000        0.5396772397        0.0198218851
H                0.0000000000        0.4603226688        0.5198218851
H                0.5000000000        0.0396772850        0.0198218815
H                0.5000000000        0.9603226969        0.5198218796
H                0.6802794605        0.7719914802        0.9834625174
H                0.3197205194        0.2280085569        0.4834625362
H                0.6802794806        0.2280085569        0.4834625362
H                0.3197205395        0.7719914802        0.9834625174
H                0.1802794722        0.2719914702        0.9834625217
H                0.8197205227        0.7280085574        0.4834625301
H                0.1802794773        0.7280085574        0.4834625301
H                0.8197205278        0.2719914702        0.9834625217



     Writing config-only to output data dir ./iceIh/iceIh.save/ :
     XML data file
     NEW-OLD atomic charge density approx. for the potential

     negative rho (up, down):  2.560E-07 0.000E+00

     total cpu time spent up to now is      269.9 secs

     per-process dynamical memory:    68.4 Mb

     Self-consistent Calculation

     iteration #  1     ecut=    90.00 Ry     beta= 0.70
     Davidson diagonalization with overlap
     ethr =  1.00E-06,  avg # of iterations =  7.0

     negative rho (up, down):  3.111E-07 0.000E+00

     total cpu time spent up to now is      290.4 secs

     total energy              =    -276.01275298 Ry
     estimated scf accuracy    <       0.00382206 Ry

     iteration #  2     ecut=    90.00 Ry     beta= 0.70
     Davidson diagonalization with overlap
     ethr =  5.97E-06,  avg # of iterations =  3.0

     negative rho (up, down):  3.008E-07 0.000E+00

     total cpu time spent up to now is      301.6 secs

     total energy              =    -276.01358270 Ry
     estimated scf accuracy    <       0.00124961 Ry

     iteration #  3     ecut=    90.00 Ry     beta= 0.70
     Davidson diagonalization with overlap
     ethr =  1.95E-06,  avg # of iterations =  3.0

     negative rho (up, down):  3.031E-07 0.000E+00

     total cpu time spent up to now is      312.1 secs

     total energy              =    -276.01387053 Ry
     estimated scf accuracy    <       0.00004375 Ry

     iteration #  4     ecut=    90.00 Ry     beta= 0.70
     Davidson diagonalization with overlap
     ethr =  6.84E-08,  avg # of iterations =  2.7

     negative rho (up, down):  3.052E-07 0.000E+00

     total cpu time spent up to now is      322.3 secs

     total energy              =    -276.01387914 Ry
     estimated scf accuracy    <       0.00000798 Ry

     iteration #  5     ecut=    90.00 Ry     beta= 0.70
     Davidson diagonalization with overlap
     ethr =  1.25E-08,  avg # of iterations =  3.3

     negative rho (up, down):  3.040E-07 0.000E+00

     total cpu time spent up to now is      333.4 secs

     total energy              =    -276.01388160 Ry
     estimated scf accuracy    <       0.00000044 Ry

     iteration #  6     ecut=    90.00 Ry     beta= 0.70
     Davidson diagonalization with overlap
     ethr =  6.81E-10,  avg # of iterations =  2.6

     negative rho (up, down):  3.033E-07 0.000E+00

     total cpu time spent up to now is      343.4 secs

     total energy              =    -276.01388163 Ry
     estimated scf accuracy    <       0.00000015 Ry

     iteration #  7     ecut=    90.00 Ry     beta= 0.70
     Davidson diagonalization with overlap
     ethr =  2.40E-10,  avg # of iterations =  3.5

     negative rho (up, down):  3.033E-07 0.000E+00

     total cpu time spent up to now is      354.8 secs

     End of self-consistent calculation

     Number of k-points >= 100: set verbosity='high' to print the bands.

     highest occupied level (ev):    -3.5929

!    total energy              =    -276.01388167 Ry
     estimated scf accuracy    <       0.00000002 Ry

     The total energy is the sum of the following terms:
     one-electron contribution =    -239.65101518 Ry
     hartree contribution      =     140.11603209 Ry
     xc contribution           =     -67.54373188 Ry
     ewald contribution        =    -108.93516670 Ry

     convergence has been achieved in   7 iterations

     Forces acting on atoms (cartesian axes, Ry/au):

     atom    1 type  2   force =     0.00000000   -0.00372233   -0.00629919
     atom    2 type  2   force =     0.00000000    0.00372224   -0.00629841
     atom    3 type  2   force =     0.00000000   -0.00372250   -0.00629901
     atom    4 type  2   force =     0.00000000    0.00372229   -0.00629865
     atom    5 type  2   force =     0.00000000   -0.00058857    0.00933109
     atom    6 type  2   force =     0.00000000    0.00058828    0.00933086
     atom    7 type  2   force =     0.00000000   -0.00058844    0.00933102
     atom    8 type  2   force =     0.00000000    0.00058834    0.00933093
     atom    9 type  1   force =     0.00000000   -0.00323969   -0.00035240
     atom   10 type  1   force =     0.00000000    0.00323945   -0.00035267
     atom   11 type  1   force =     0.00000000   -0.00323956   -0.00035236
     atom   12 type  1   force =     0.00000000    0.00323951   -0.00035254
     atom   13 type  1   force =     0.00000000    0.01218248    0.00508439
     atom   14 type  1   force =     0.00000000   -0.01218208    0.00508400
     atom   15 type  1   force =     0.00000000    0.01218248    0.00508424
     atom   16 type  1   force =     0.00000000   -0.01218218    0.00508408
     atom   17 type  1   force =    -0.01394368   -0.00199870   -0.00388195
     atom   18 type  1   force =     0.01394359    0.00199880   -0.00388188
     atom   19 type  1   force =    -0.01394359    0.00199880   -0.00388188
     atom   20 type  1   force =     0.01394368   -0.00199870   -0.00388195
     atom   21 type  1   force =    -0.01394365   -0.00199875   -0.00388195
     atom   22 type  1   force =     0.01394361    0.00199879   -0.00388189
     atom   23 type  1   force =    -0.01394361    0.00199879   -0.00388189
     atom   24 type  1   force =     0.01394365   -0.00199875   -0.00388195

     Total force =     0.054874     Total SCF correction =     0.000101


     Computing stress (Cartesian axis) and pressure

          total   stress  (Ry/bohr**3)                   (kbar)     P=      -22.33
  -0.00020525   0.00000000   0.00000000          -30.19        0.00        0.00
   0.00000000  -0.00015361  -0.00000000            0.00      -22.60       -0.00
   0.00000000  -0.00000000  -0.00009651            0.00       -0.00      -14.20

     Energy error            =      1.2E-02 Ry
     Gradient error          =      1.4E-02 Ry/Bohr

     number of scf cycles    =   3
     number of bfgs steps    =   2

     energy             old  =    -276.0014488536 Ry
     energy             new  =    -276.0138816681 Ry

     CASE: energy            _new < energy            _old

     new trust radius        =       0.0182641655 bohr
     new conv_thr            =       0.0000000139 Ry


ATOMIC_POSITIONS (crystal)
O                0.0000000000        0.6622339096        0.0607176197
O                0.0000000000        0.3377660053        0.5607175322
O                0.5000000000        0.1622339622        0.0607175667
O                0.5000000000        0.8377660267        0.5607175342
O                0.5000000000        0.8306714121        0.9344970563
O                0.5000000000        0.1693286196        0.4344970966
O                0.0000000000        0.3306713784        0.9344970345
O                0.0000000000        0.6693286223        0.4344970908
H                0.0000000000        0.6628059663        0.1964219646
H                0.0000000000        0.3371940047        0.6964218185
H                0.5000000000        0.1628059905        0.1964218912
H                0.5000000000        0.8371940176        0.6964218375
H                0.0000000000        0.5404365109        0.0201829971
H                0.0000000000        0.4595634158        0.5201829680
H                0.5000000000        0.0404365574        0.0201829814
H                0.5000000000        0.9595634408        0.5201829683
H                0.6782495485        0.7718770772        0.9830902506
H                0.3217504136        0.2281229705        0.4830902778
H                0.6782495864        0.2281229705        0.4830902778
H                0.3217504515        0.7718770772        0.9830902506
H                0.1782495654        0.2718770630        0.9830902556
H                0.8217504203        0.7281229691        0.4830902702
H                0.1782495797        0.7281229691        0.4830902702
H                0.8217504346        0.2718770630        0.9830902556



     Writing config-only to output data dir ./iceIh/iceIh.save/ :
     XML data file
     NEW-OLD atomic charge density approx. for the potential

     negative rho (up, down):  3.213E-07 0.000E+00

     total cpu time spent up to now is      365.2 secs

     per-process dynamical memory:    68.4 Mb

     Self-consistent Calculation

     iteration #  1     ecut=    90.00 Ry     beta= 0.70
     Davidson diagonalization with overlap
     ethr =  1.00E-06,  avg # of iterations =  4.0

     negative rho (up, down):  3.051E-07 0.000E+00

     total cpu time spent up to now is      379.9 secs

     total energy              =    -276.01557986 Ry
     estimated scf accuracy    <       0.00057517 Ry

     iteration #  2     ecut=    90.00 Ry     beta= 0.70
     Davidson diagonalization with overlap
     ethr =  8.99E-07,  avg # of iterations =  3.0

     negative rho (up, down):  2.855E-07 0.000E+00

     total cpu time spent up to now is      391.2 secs

     total energy              =    -276.01571180 Ry
     estimated scf accuracy    <       0.00019988 Ry

     iteration #  3     ecut=    90.00 Ry     beta= 0.70
     Davidson diagonalization with overlap
     ethr =  3.12E-07,  avg # of iterations =  3.0

     negative rho (up, down):  2.752E-07 0.000E+00

     total cpu time spent up to now is      401.1 secs

     total energy              =    -276.01575336 Ry
     estimated scf accuracy    <       0.00000543 Ry

     iteration #  4     ecut=    90.00 Ry     beta= 0.70
     Davidson diagonalization with overlap
     ethr =  8.48E-09,  avg # of iterations =  3.0

     negative rho (up, down):  2.737E-07 0.000E+00

     total cpu time spent up to now is      413.1 secs

     total energy              =    -276.01575527 Ry
     estimated scf accuracy    <       0.00000302 Ry

     iteration #  5     ecut=    90.00 Ry     beta= 0.70
     Davidson diagonalization with overlap
     ethr =  4.72E-09,  avg # of iterations =  2.0

     negative rho (up, down):  2.732E-07 0.000E+00

     total cpu time spent up to now is      422.3 secs

     total energy              =    -276.01575562 Ry
     estimated scf accuracy    <       0.00000033 Ry

     iteration #  6     ecut=    90.00 Ry     beta= 0.70
     Davidson diagonalization with overlap
     ethr =  5.13E-10,  avg # of iterations =  3.0

     negative rho (up, down):  2.725E-07 0.000E+00

     total cpu time spent up to now is      434.2 secs

     total energy              =    -276.01575574 Ry
     estimated scf accuracy    <       0.00000013 Ry

     iteration #  7     ecut=    90.00 Ry     beta= 0.70
     Davidson diagonalization with overlap
     ethr =  2.00E-10,  avg # of iterations =  2.0

     negative rho (up, down):  2.723E-07 0.000E+00

     total cpu time spent up to now is      444.1 secs

     End of self-consistent calculation

     Number of k-points >= 100: set verbosity='high' to print the bands.

     highest occupied level (ev):    -3.6070

!    total energy              =    -276.01575576 Ry
     estimated scf accuracy    <          2.3E-09 Ry

     The total energy is the sum of the following terms:
     one-electron contribution =    -240.49841147 Ry
     hartree contribution      =     140.49972804 Ry
     xc contribution           =     -67.62594067 Ry
     ewald contribution        =    -108.39113166 Ry

     convergence has been achieved in   7 iterations

     Forces acting on atoms (cartesian axes, Ry/au):

     atom    1 type  2   force =     0.00000000    0.00398110    0.00045840
     atom    2 type  2   force =     0.00000000   -0.00398093    0.00045795
     atom    3 type  2   force =     0.00000000    0.00398105    0.00045833
     atom    4 type  2   force =     0.00000000   -0.00398095    0.00045813
     atom    5 type  2   force =     0.00000000    0.01117474   -0.00207349
     atom    6 type  2   force =     0.00000000   -0.01117459   -0.00207337
     atom    7 type  2   force =     0.00000000    0.01117470   -0.00207342
     atom    8 type  2   force =     0.00000000   -0.01117465   -0.00207339
     atom    9 type  1   force =     0.00000000   -0.00261737   -0.00293562
     atom   10 type  1   force =     0.00000000    0.00261723   -0.00293497
     atom   11 type  1   force =     0.00000000   -0.00261730   -0.00293540
     atom   12 type  1   force =     0.00000000    0.00261725   -0.00293517
     atom   13 type  1   force =     0.00000000    0.00346824    0.00203660
     atom   14 type  1   force =     0.00000000   -0.00346817    0.00203645
     atom   15 type  1   force =     0.00000000    0.00346818    0.00203651
     atom   16 type  1   force =     0.00000000   -0.00346819    0.00203647
     atom   17 type  1   force =    -0.00144483   -0.00770352    0.00125705
     atom   18 type  1   force =     0.00144502    0.00770340    0.00125696
     atom   19 type  1   force =    -0.00144502    0.00770340    0.00125696
     atom   20 type  1   force =     0.00144483   -0.00770352    0.00125705
     atom   21 type  1   force =    -0.00144491   -0.00770348    0.00125700
     atom   22 type  1   force =     0.00144497    0.00770344    0.00125698
     atom   23 type  1   force =    -0.00144497    0.00770344    0.00125698
     atom   24 type  1   force =     0.00144491   -0.00770348    0.00125700

     Total force =     0.034808     Total SCF correction =     0.000076


     Computing stress (Cartesian axis) and pressure

          total   stress  (Ry/bohr**3)                   (kbar)     P=      -13.50
  -0.00010766   0.00000000   0.00000000          -15.84        0.00        0.00
   0.00000000  -0.00007966  -0.00000000            0.00      -11.72       -0.00
   0.00000000  -0.00000000  -0.00008791            0.00       -0.00      -12.93

     Energy error            =      1.9E-03 Ry
     Gradient error          =      1.1E-02 Ry/Bohr

     number of scf cycles    =   4
     number of bfgs steps    =   3

     energy             old  =    -276.0138816681 Ry
     energy             new  =    -276.0157557590 Ry

     CASE: energy            _new < energy            _old

     new trust radius        =       0.0131623172 bohr
     new conv_thr            =       0.0000000112 Ry


ATOMIC_POSITIONS (crystal)
O                0.0000000000        0.6625998038        0.0607137722
O                0.0000000000        0.3374001319        0.5607136735
O                0.5000000000        0.1625998477        0.0607137219
O                0.5000000000        0.8374001490        0.5607136813
O                0.5000000000        0.8314097429        0.9347159284
O                0.5000000000        0.1685902859        0.4347159667
O                0.0000000000        0.3314097116        0.9347159081
O                0.0000000000        0.6685902871        0.4347159625
H                0.0000000000        0.6624892711        0.1960586058
H                0.0000000000        0.3375106806        0.6960584972
H                0.5000000000        0.1624893054        0.1960585474
H                0.5000000000        0.8375106976        0.6960585061
H                0.0000000000        0.5409442224        0.0204768787
H                0.0000000000        0.4590557104        0.5204768274
H                0.5000000000        0.0409442660        0.0204768508
H                0.5000000000        0.9590557351        0.5204768312
H                0.6771530032        0.7712621074        0.9830174770
H                0.3228469721        0.2287379371        0.4830175022
H                0.6771530279        0.2287379371        0.4830175022
H                0.3228469968        0.7712621074        0.9830174770
H                0.1771530134        0.2712620939        0.9830174787
H                0.8228469739        0.7287379374        0.4830174956
H                0.1771530261        0.7287379374        0.4830174956
H                0.8228469866        0.2712620939        0.9830174787



     Writing config-only to output data dir ./iceIh/iceIh.save/ :
     XML data file
     NEW-OLD atomic charge density approx. for the potential

     negative rho (up, down):  2.777E-07 0.000E+00

     total cpu time spent up to now is      454.2 secs

     per-process dynamical memory:    68.4 Mb

     Self-consistent Calculation

     iteration #  1     ecut=    90.00 Ry     beta= 0.70
     Davidson diagonalization with overlap
     ethr =  1.00E-06,  avg # of iterations =  4.0

     negative rho (up, down):  2.542E-07 0.000E+00

     total cpu time spent up to now is      468.1 secs

     total energy              =    -276.01688345 Ry
     estimated scf accuracy    <       0.00008391 Ry

     iteration #  2     ecut=    90.00 Ry     beta= 0.70
     Davidson diagonalization with overlap
     ethr =  1.31E-07,  avg # of iterations =  2.2

     negative rho (up, down):  2.481E-07 0.000E+00

     total cpu time spent up to now is      477.5 secs

     total energy              =    -276.01689674 Ry
     estimated scf accuracy    <       0.00001201 Ry

     iteration #  3     ecut=    90.00 Ry     beta= 0.70
     Davidson diagonalization with overlap
     ethr =  1.88E-08,  avg # of iterations =  3.0

     negative rho (up, down):  2.450E-07 0.000E+00

     total cpu time spent up to now is      488.6 secs

     total energy              =    -276.01690001 Ry
     estimated scf accuracy    <       0.00000402 Ry

     iteration #  4     ecut=    90.00 Ry     beta= 0.70
     Davidson diagonalization with overlap
     ethr =  6.28E-09,  avg # of iterations =  2.0

     negative rho (up, down):  2.438E-07 0.000E+00

     total cpu time spent up to now is      497.3 secs

     total energy              =    -276.01690057 Ry
     estimated scf accuracy    <       0.00000013 Ry

     iteration #  5     ecut=    90.00 Ry     beta= 0.70
     Davidson diagonalization with overlap
     ethr =  1.97E-10,  avg # of iterations =  5.7

     negative rho (up, down):  2.440E-07 0.000E+00

     total cpu time spent up to now is      512.6 secs

     total energy              =    -276.01690065 Ry
     estimated scf accuracy    <       0.00000028 Ry

     iteration #  6     ecut=    90.00 Ry     beta= 0.70
     Davidson diagonalization with overlap
     ethr =  1.97E-10,  avg # of iterations =  3.0

     negative rho (up, down):  2.440E-07 0.000E+00

     total cpu time spent up to now is      523.0 secs

     total energy              =    -276.01690067 Ry
     estimated scf accuracy    <       0.00000002 Ry

     iteration #  7     ecut=    90.00 Ry     beta= 0.70
     Davidson diagonalization with overlap
     ethr =  3.21E-11,  avg # of iterations =  3.5

     negative rho (up, down):  2.440E-07 0.000E+00

     total cpu time spent up to now is      535.6 secs

     End of self-consistent calculation

     Number of k-points >= 100: set verbosity='high' to print the bands.

     highest occupied level (ev):    -3.6202

!    total energy              =    -276.01690068 Ry
     estimated scf accuracy    <          4.2E-09 Ry

     The total energy is the sum of the following terms:
     one-electron contribution =    -240.64499798 Ry
     hartree contribution      =     140.56370657 Ry
     xc contribution           =     -67.63910962 Ry
     ewald contribution        =    -108.29649965 Ry

     convergence has been achieved in   7 iterations

     Forces acting on atoms (cartesian axes, Ry/au):

     atom    1 type  2   force =     0.00000000    0.00456663   -0.00175078
     atom    2 type  2   force =     0.00000000   -0.00456670   -0.00175071
     atom    3 type  2   force =     0.00000000    0.00456665   -0.00175075
     atom    4 type  2   force =     0.00000000   -0.00456664   -0.00175071
     atom    5 type  2   force =     0.00000000    0.00720775   -0.00024191
     atom    6 type  2   force =     0.00000000   -0.00720765   -0.00024182
     atom    7 type  2   force =     0.00000000    0.00720775   -0.00024188
     atom    8 type  2   force =     0.00000000   -0.00720767   -0.00024182
     atom    9 type  1   force =     0.00000000   -0.00138565    0.00078602
     atom   10 type  1   force =     0.00000000    0.00138561    0.00078615
     atom   11 type  1   force =     0.00000000   -0.00138563    0.00078611
     atom   12 type  1   force =     0.00000000    0.00138561    0.00078611
     atom   13 type  1   force =     0.00000000    0.00102768    0.00043841
     atom   14 type  1   force =     0.00000000   -0.00102747    0.00043830
     atom   15 type  1   force =     0.00000000    0.00102760    0.00043836
     atom   16 type  1   force =     0.00000000   -0.00102755    0.00043832
     atom   17 type  1   force =     0.00035230   -0.00538475    0.00038412
     atom   18 type  1   force =    -0.00035219    0.00538466    0.00038405
     atom   19 type  1   force =     0.00035219    0.00538466    0.00038405
     atom   20 type  1   force =    -0.00035230   -0.00538475    0.00038412
     atom   21 type  1   force =     0.00035227   -0.00538474    0.00038409
     atom   22 type  1   force =    -0.00035220    0.00538467    0.00038406
     atom   23 type  1   force =     0.00035220    0.00538467    0.00038406
     atom   24 type  1   force =    -0.00035227   -0.00538474    0.00038409

     Total force =     0.023516     Total SCF correction =     0.000057


     Computing stress (Cartesian axis) and pressure

          total   stress  (Ry/bohr**3)                   (kbar)     P=      -11.68
  -0.00009687   0.00000000   0.00000000          -14.25        0.00        0.00
   0.00000000  -0.00007153  -0.00000000            0.00      -10.52       -0.00
   0.00000000  -0.00000000  -0.00006981            0.00       -0.00      -10.27

     Energy error            =      1.1E-03 Ry
     Gradient error          =      7.2E-03 Ry/Bohr

     number of scf cycles    =   5
     number of bfgs steps    =   4

     energy             old  =    -276.0157557590 Ry
     energy             new  =    -276.0169006813 Ry

     CASE: energy            _new < energy            _old

     new trust radius        =       0.0144785489 bohr
     new conv_thr            =       0.0000000072 Ry


ATOMIC_POSITIONS (crystal)
O                0.0000000000        0.6632438499        0.0604707807
O                0.0000000000        0.3367560902        0.5604707092
O                0.5000000000        0.1632438898        0.0604707414
O                0.5000000000        0.8367561102        0.5604707105
O                0.5000000000        0.8322944721        0.9350783029
O                0.5000000000        0.1677055552        0.4350783409
O                0.0000000000        0.3322944460        0.9350782831
O                0.0000000000        0.6677055566        0.4350783408
H                0.0000000000        0.6621537607        0.1959478581
H                0.0000000000        0.3378461729        0.6959477611
H                0.5000000000        0.1621538040        0.1959478114
H                0.5000000000        0.8378461939        0.6959477688
H                0.0000000000        0.5414037469        0.0207174535
H                0.0000000000        0.4585962107        0.5207173750
H                0.5000000000        0.0414037822        0.0207174125
H                0.5000000000        0.9585962281        0.5207173839
H                0.6761499807        0.7704880485        0.9828928707
H                0.3238500104        0.2295119903        0.4828928914
H                0.6761499896        0.2295119903        0.4828928914
H                0.3238500193        0.7704880485        0.9828928707
H                0.1761499863        0.2704880347        0.9828928684
H                0.8238500099        0.7295119918        0.4828928856
H                0.1761499901        0.7295119918        0.4828928856
H                0.8238500137        0.2704880347        0.9828928684



     Writing config-only to output data dir ./iceIh/iceIh.save/ :
     XML data file
     NEW-OLD atomic charge density approx. for the potential

     negative rho (up, down):  2.419E-07 0.000E+00

     total cpu time spent up to now is      545.9 secs

     per-process dynamical memory:    68.4 Mb

     Self-consistent Calculation

     iteration #  1     ecut=    90.00 Ry     beta= 0.70
     Davidson diagonalization with overlap
     ethr =  1.00E-06,  avg # of iterations =  4.0

     negative rho (up, down):  1.865E-07 0.000E+00

     total cpu time spent up to now is      560.5 secs

     total energy              =    -276.01758564 Ry
     estimated scf accuracy    <       0.00015163 Ry

     iteration #  2     ecut=    90.00 Ry     beta= 0.70
     Davidson diagonalization with overlap
     ethr =  2.37E-07,  avg # of iterations =  2.0

     negative rho (up, down):  1.766E-07 0.000E+00

     total cpu time spent up to now is      570.4 secs

     total energy              =    -276.01760907 Ry
     estimated scf accuracy    <       0.00001920 Ry

     iteration #  3     ecut=    90.00 Ry     beta= 0.70
     Davidson diagonalization with overlap
     ethr =  3.00E-08,  avg # of iterations =  2.0

     negative rho (up, down):  1.710E-07 0.000E+00

     total cpu time spent up to now is      580.4 secs

     total energy              =    -276.01761382 Ry
     estimated scf accuracy    <       0.00000219 Ry

     iteration #  4     ecut=    90.00 Ry     beta= 0.70
     Davidson diagonalization with overlap
     ethr =  3.42E-09,  avg # of iterations =  2.0

     negative rho (up, down):  1.695E-07 0.000E+00

     total cpu time spent up to now is      588.6 secs

     total energy              =    -276.01761394 Ry
     estimated scf accuracy    <       0.00000018 Ry

     iteration #  5     ecut=    90.00 Ry     beta= 0.70
     Davidson diagonalization with overlap
     ethr =  2.75E-10,  avg # of iterations =  3.0

     negative rho (up, down):  1.698E-07 0.000E+00

     total cpu time spent up to now is      599.6 secs

     total energy              =    -276.01761401 Ry
     estimated scf accuracy    <       0.00000005 Ry

     iteration #  6     ecut=    90.00 Ry     beta= 0.70
     Davidson diagonalization with overlap
     ethr =  8.55E-11,  avg # of iterations =  2.0

     negative rho (up, down):  1.700E-07 0.000E+00

     total cpu time spent up to now is      609.2 secs

     End of self-consistent calculation

     Number of k-points >= 100: set verbosity='high' to print the bands.

     highest occupied level (ev):    -3.6280

!    total energy              =    -276.01761402 Ry
     estimated scf accuracy    <          3.5E-10 Ry

     The total energy is the sum of the following terms:
     one-electron contribution =    -240.55355211 Ry
     hartree contribution      =     140.51870730 Ry
     xc contribution           =     -67.62890546 Ry
     ewald contribution        =    -108.35386374 Ry

     convergence has been achieved in   6 iterations

     Forces acting on atoms (cartesian axes, Ry/au):

     atom    1 type  2   force =     0.00000000    0.00193876    0.00083822
     atom    2 type  2   force =     0.00000000   -0.00193854    0.00083789
     atom    3 type  2   force =     0.00000000    0.00193871    0.00083816
     atom    4 type  2   force =     0.00000000   -0.00193861    0.00083801
     atom    5 type  2   force =     0.00000000    0.00160591    0.00215907
     atom    6 type  2   force =     0.00000000   -0.00160591    0.00215906
     atom    7 type  2   force =     0.00000000    0.00160590    0.00215910
     atom    8 type  2   force =     0.00000000   -0.00160594    0.00215907
     atom    9 type  1   force =     0.00000000    0.00034488   -0.00042870
     atom   10 type  1   force =     0.00000000   -0.00034484   -0.00042842
     atom   11 type  1   force =     0.00000000    0.00034486   -0.00042863
     atom   12 type  1   force =     0.00000000   -0.00034485   -0.00042851
     atom   13 type  1   force =     0.00000000    0.00114131   -0.00079013
     atom   14 type  1   force =     0.00000000   -0.00114147   -0.00079002
     atom   15 type  1   force =     0.00000000    0.00114134   -0.00079009
     atom   16 type  1   force =     0.00000000   -0.00114141   -0.00079005
     atom   17 type  1   force =     0.00133913   -0.00214221   -0.00088924
     atom   18 type  1   force =    -0.00133912    0.00214217   -0.00088926
     atom   19 type  1   force =     0.00133912    0.00214217   -0.00088926
     atom   20 type  1   force =    -0.00133913   -0.00214221   -0.00088924
     atom   21 type  1   force =     0.00133911   -0.00214220   -0.00088927
     atom   22 type  1   force =    -0.00133913    0.00214218   -0.00088925
     atom   23 type  1   force =     0.00133913    0.00214218   -0.00088925
     atom   24 type  1   force =    -0.00133911   -0.00214220   -0.00088927

     Total force =     0.010635     Total SCF correction =     0.000040


     Computing stress (Cartesian axis) and pressure

          total   stress  (Ry/bohr**3)                   (kbar)     P=      -12.32
  -0.00009294   0.00000000   0.00000000          -13.67        0.00        0.00
   0.00000000  -0.00007916   0.00000000            0.00      -11.64        0.00
   0.00000000   0.00000000  -0.00007919            0.00        0.00      -11.65

     Energy error            =      7.1E-04 Ry
     Gradient error          =      2.2E-03 Ry/Bohr

     number of scf cycles    =   6
     number of bfgs steps    =   5

     energy             old  =    -276.0169006813 Ry
     energy             new  =    -276.0176140175 Ry

     CASE: energy            _new < energy            _old

     new trust radius        =       0.0085155302 bohr
     new conv_thr            =       0.0000000022 Ry


ATOMIC_POSITIONS (crystal)
O                0.0000000000        0.6636120385        0.0604652592
O                0.0000000000        0.3363879267        0.5604651660
O                0.5000000000        0.1636120705        0.0604652186
O                0.5000000000        0.8363879400        0.5604651760
O                0.5000000000        0.8327190757        0.9354872834
O                0.5000000000        0.1672809477        0.4354873179
O                0.0000000000        0.3327190518        0.9354872660
O                0.0000000000        0.6672809468        0.4354873198
H                0.0000000000        0.6620495039        0.1958278865
H                0.0000000000        0.3379504256        0.6958278209
H                0.5000000000        0.1620495491        0.1958278510
H                0.5000000000        0.8379504476        0.6958278200
H                0.0000000000        0.5417476860        0.0207590561
H                0.0000000000        0.4582522641        0.5207589773
H                0.5000000000        0.0417477225        0.0207590135
H                0.5000000000        0.9582522852        0.5207589847
H                0.6758317643        0.7700256069        0.9827303246
H                0.3241682303        0.2299744278        0.4827303430
H                0.6758317697        0.2299744278        0.4827303430
H                0.3241682357        0.7700256069        0.9827303246
H                0.1758317665        0.2700255937        0.9827303186
H                0.8241682280        0.7299744307        0.4827303383
H                0.1758317720        0.7299744307        0.4827303383
H                0.8241682335        0.2700255937        0.9827303186



     Writing config-only to output data dir ./iceIh/iceIh.save/ :
     XML data file
     NEW-OLD atomic charge density approx. for the potential

     negative rho (up, down):  1.669E-07 0.000E+00

     total cpu time spent up to now is      619.3 secs

     per-process dynamical memory:    68.4 Mb

     Self-consistent Calculation

     iteration #  1     ecut=    90.00 Ry     beta= 0.70
     Davidson diagonalization with overlap
     ethr =  1.00E-06,  avg # of iterations =  3.0

     Threshold (ethr) on eigenvalues was too large:
     Diagonalizing with lowered threshold

     Davidson diagonalization with overlap
     ethr =  7.57E-08,  avg # of iterations =  2.0

     negative rho (up, down):  1.134E-07 0.000E+00

     total cpu time spent up to now is      640.7 secs

     total energy              =    -276.01777582 Ry
     estimated scf accuracy    <       0.00005549 Ry

     iteration #  2     ecut=    90.00 Ry     beta= 0.70
     Davidson diagonalization with overlap
     ethr =  8.67E-08,  avg # of iterations =  2.0

     negative rho (up, down):  9.748E-08 0.000E+00

     total cpu time spent up to now is      649.1 secs

     total energy              =    -276.01778252 Ry
     estimated scf accuracy    <       0.00000307 Ry

     iteration #  3     ecut=    90.00 Ry     beta= 0.70
     Davidson diagonalization with overlap
     ethr =  4.79E-09,  avg # of iterations =  3.0

     negative rho (up, down):  9.402E-08 0.000E+00

     total cpu time spent up to now is      660.3 secs

     total energy              =    -276.01778360 Ry
     estimated scf accuracy    <       0.00000073 Ry

     iteration #  4     ecut=    90.00 Ry     beta= 0.70
     Davidson diagonalization with overlap
     ethr =  1.14E-09,  avg # of iterations =  2.0

     negative rho (up, down):  9.162E-08 0.000E+00

     total cpu time spent up to now is      669.9 secs

     total energy              =    -276.01778373 Ry
     estimated scf accuracy    <       0.00000005 Ry

     iteration #  5     ecut=    90.00 Ry     beta= 0.70
     Davidson diagonalization with overlap
     ethr =  7.94E-11,  avg # of iterations =  3.0

     negative rho (up, down):  9.167E-08 0.000E+00

     total cpu time spent up to now is      681.1 secs

     total energy              =    -276.01778374 Ry
     estimated scf accuracy    <       0.00000002 Ry

     iteration #  6     ecut=    90.00 Ry     beta= 0.70
     Davidson diagonalization with overlap
     ethr =  2.90E-11,  avg # of iterations =  2.0

     negative rho (up, down):  9.180E-08 0.000E+00

     total cpu time spent up to now is      689.9 secs

     End of self-consistent calculation

     Number of k-points >= 100: set verbosity='high' to print the bands.

     highest occupied level (ev):    -3.6333

!    total energy              =    -276.01778374 Ry
     estimated scf accuracy    <          1.0E-09 Ry

     The total energy is the sum of the following terms:
     one-electron contribution =    -240.54016866 Ry
     hartree contribution      =     140.51164858 Ry
     xc contribution           =     -67.62701568 Ry
     ewald contribution        =    -108.36224798 Ry

     convergence has been achieved in   6 iterations

     Forces acting on atoms (cartesian axes, Ry/au):

     atom    1 type  2   force =     0.00000000    0.00087337   -0.00006624
     atom    2 type  2   force =     0.00000000   -0.00087361   -0.00006585
     atom    3 type  2   force =     0.00000000    0.00087343   -0.00006615
     atom    4 type  2   force =     0.00000000   -0.00087352   -0.00006598
     atom    5 type  2   force =     0.00000000   -0.00110769    0.00280627
     atom    6 type  2   force =     0.00000000    0.00110769    0.00280627
     atom    7 type  2   force =     0.00000000   -0.00110766    0.00280626
     atom    8 type  2   force =     0.00000000    0.00110771    0.00280629
     atom    9 type  1   force =     0.00000000    0.00097527    0.00076187
     atom   10 type  1   force =     0.00000000   -0.00097520    0.00076157
     atom   11 type  1   force =     0.00000000    0.00097523    0.00076180
     atom   12 type  1   force =     0.00000000   -0.00097521    0.00076167
     atom   13 type  1   force =     0.00000000    0.00093699   -0.00110390
     atom   14 type  1   force =     0.00000000   -0.00093675   -0.00110390
     atom   15 type  1   force =     0.00000000    0.00093693   -0.00110388
     atom   16 type  1   force =     0.00000000   -0.00093683   -0.00110389
     atom   17 type  1   force =     0.00135328   -0.00047961   -0.00119901
     atom   18 type  1   force =    -0.00135328    0.00047958   -0.00119904
     atom   19 type  1   force =     0.00135328    0.00047958   -0.00119904
     atom   20 type  1   force =    -0.00135328   -0.00047961   -0.00119901
     atom   21 type  1   force =     0.00135329   -0.00047961   -0.00119902
     atom   22 type  1   force =    -0.00135327    0.00047957   -0.00119903
     atom   23 type  1   force =     0.00135327    0.00047957   -0.00119903
     atom   24 type  1   force =    -0.00135329   -0.00047961   -0.00119902

     Total force =     0.009054     Total SCF correction =     0.000095


     Computing stress (Cartesian axis) and pressure

          total   stress  (Ry/bohr**3)                   (kbar)     P=      -12.36
  -0.00009311   0.00000000   0.00000000          -13.70        0.00        0.00
   0.00000000  -0.00008308  -0.00000000            0.00      -12.22       -0.00
   0.00000000  -0.00000000  -0.00007589            0.00       -0.00      -11.16

     Energy error            =      1.7E-04 Ry
     Gradient error          =      2.8E-03 Ry/Bohr

     number of scf cycles    =   7
     number of bfgs steps    =   6

     energy             old  =    -276.0176140175 Ry
     energy             new  =    -276.0177837364 Ry

     CASE: energy            _new < energy            _old

     new trust radius        =       0.0066906676 bohr
     new conv_thr            =       0.0000000017 Ry


ATOMIC_POSITIONS (crystal)
O                0.0000000000        0.6638801161        0.0604524775
O                0.0000000000        0.3361198366        0.5604524139
O                0.5000000000        0.1638801510        0.0604524459
O                0.5000000000        0.8361198558        0.5604524152
O                0.5000000000        0.8328761020        0.9359360232
O                0.5000000000        0.1671239207        0.4359360572
O                0.0000000000        0.3328760820        0.9359360066
O                0.0000000000        0.6671239197        0.4359360620
H                0.0000000000        0.6620741875        0.1958309909
H                0.0000000000        0.3379257458        0.6958309120
H                0.5000000000        0.1620742305        0.1958309553
H                0.5000000000        0.8379257671        0.6958309165
H                0.0000000000        0.5420173708        0.0206870303
H                0.0000000000        0.4579826008        0.5206869501
H                0.5000000000        0.0420174012        0.0206869886
H                0.5000000000        0.9579826151        0.5206869578
H                0.6758723821        0.7697251591        0.9825468039
H                0.3241276154        0.2302748703        0.4825468182
H                0.6758723846        0.2302748703        0.4825468182
H                0.3241276179        0.7697251591        0.9825468039
H                0.1758723848        0.2697251459        0.9825467951
H                0.8241276146        0.7302748734        0.4825468143
H                0.1758723854        0.7302748734        0.4825468143
H                0.8241276152        0.2697251459        0.9825467951



     Writing config-only to output data dir ./iceIh/iceIh.save/ :
     XML data file
     NEW-OLD atomic charge density approx. for the potential

     negative rho (up, down):  9.011E-08 0.000E+00

     total cpu time spent up to now is      700.0 secs

     per-process dynamical memory:    68.4 Mb

     Self-consistent Calculation

     iteration #  1     ecut=    90.00 Ry     beta= 0.70
     Davidson diagonalization with overlap
     ethr =  1.00E-06,  avg # of iterations =  3.0

     Threshold (ethr) on eigenvalues was too large:
     Diagonalizing with lowered threshold

     Davidson diagonalization with overlap
     ethr =  4.75E-08,  avg # of iterations =  2.0

     negative rho (up, down):  4.206E-08 0.000E+00

     total cpu time spent up to now is      720.9 secs

     total energy              =    -276.01788717 Ry
     estimated scf accuracy    <       0.00003459 Ry

     iteration #  2     ecut=    90.00 Ry     beta= 0.70
     Davidson diagonalization with overlap
     ethr =  5.40E-08,  avg # of iterations =  2.0

     negative rho (up, down):  2.923E-08 0.000E+00

     total cpu time spent up to now is      730.5 secs

     total energy              =    -276.01789200 Ry
     estimated scf accuracy    <       0.00000445 Ry

     iteration #  3     ecut=    90.00 Ry     beta= 0.70
     Davidson diagonalization with overlap
     ethr =  6.96E-09,  avg # of iterations =  2.7

     negative rho (up, down):  2.454E-08 0.000E+00

     total cpu time spent up to now is      741.3 secs

     total energy              =    -276.01789318 Ry
     estimated scf accuracy    <       0.00000089 Ry

     iteration #  4     ecut=    90.00 Ry     beta= 0.70
     Davidson diagonalization with overlap
     ethr =  1.39E-09,  avg # of iterations =  2.2

     negative rho (up, down):  2.262E-08 0.000E+00

     total cpu time spent up to now is      750.4 secs

     total energy              =    -276.01789330 Ry
     estimated scf accuracy    <       0.00000004 Ry

     iteration #  5     ecut=    90.00 Ry     beta= 0.70
     Davidson diagonalization with overlap
     ethr =  5.51E-11,  avg # of iterations =  5.0

     negative rho (up, down):  2.240E-08 0.000E+00

     total cpu time spent up to now is      764.2 secs

     total energy              =    -276.01789331 Ry
     estimated scf accuracy    <       0.00000005 Ry

     iteration #  6     ecut=    90.00 Ry     beta= 0.70
     Davidson diagonalization with overlap
     ethr =  5.51E-11,  avg # of iterations =  3.2

     negative rho (up, down):  2.230E-08 0.000E+00

     total cpu time spent up to now is      775.1 secs

     End of self-consistent calculation

     Number of k-points >= 100: set verbosity='high' to print the bands.

     highest occupied level (ev):    -3.6366

!    total energy              =    -276.01789332 Ry
     estimated scf accuracy    <          5.5E-10 Ry

     The total energy is the sum of the following terms:
     one-electron contribution =    -240.51789214 Ry
     hartree contribution      =     140.50142991 Ry
     xc contribution           =     -67.62448589 Ry
     ewald contribution        =    -108.37694519 Ry

     convergence has been achieved in   6 iterations

     Forces acting on atoms (cartesian axes, Ry/au):

     atom    1 type  2   force =     0.00000000    0.00025185    0.00008713
     atom    2 type  2   force =     0.00000000   -0.00025163    0.00008686
     atom    3 type  2   force =     0.00000000    0.00025179    0.00008707
     atom    4 type  2   force =     0.00000000   -0.00025171    0.00008695
     atom    5 type  2   force =     0.00000000   -0.00187875    0.00221559
     atom    6 type  2   force =     0.00000000    0.00187868    0.00221554
     atom    7 type  2   force =     0.00000000   -0.00187874    0.00221560
     atom    8 type  2   force =     0.00000000    0.00187867    0.00221555
     atom    9 type  1   force =     0.00000000    0.00116463    0.00055661
     atom   10 type  1   force =     0.00000000   -0.00116455    0.00055677
     atom   11 type  1   force =     0.00000000    0.00116459    0.00055664
     atom   12 type  1   force =     0.00000000   -0.00116457    0.00055672
     atom   13 type  1   force =     0.00000000    0.00083710   -0.00099285
     atom   14 type  1   force =     0.00000000   -0.00083730   -0.00099270
     atom   15 type  1   force =     0.00000000    0.00083716   -0.00099278
     atom   16 type  1   force =     0.00000000   -0.00083723   -0.00099274
     atom   17 type  1   force =     0.00109026    0.00013662   -0.00093325
     atom   18 type  1   force =    -0.00109030   -0.00013662   -0.00093324
     atom   19 type  1   force =     0.00109030   -0.00013662   -0.00093324
     atom   20 type  1   force =    -0.00109026    0.00013662   -0.00093325
     atom   21 type  1   force =     0.00109026    0.00013662   -0.00093326
     atom   22 type  1   force =    -0.00109030   -0.00013661   -0.00093323
     atom   23 type  1   force =     0.00109030   -0.00013661   -0.00093323
     atom   24 type  1   force =    -0.00109026    0.00013662   -0.00093326

     Total force =     0.008005     Total SCF correction =     0.000049


     Computing stress (Cartesian axis) and pressure

          total   stress  (Ry/bohr**3)                   (kbar)     P=      -12.66
  -0.00009401   0.00000000   0.00000000          -13.83        0.00        0.00
   0.00000000  -0.00008511   0.00000000            0.00      -12.52        0.00
   0.00000000   0.00000000  -0.00007913            0.00        0.00      -11.64

     Energy error            =      1.1E-04 Ry
     Gradient error          =      2.2E-03 Ry/Bohr

     number of scf cycles    =   8
     number of bfgs steps    =   7

     energy             old  =    -276.0177837364 Ry
     energy             new  =    -276.0178933183 Ry

     CASE: energy            _new < energy            _old

     new trust radius        =       0.0073597343 bohr
     new conv_thr            =       0.0000000011 Ry


ATOMIC_POSITIONS (crystal)
O                0.0000000000        0.6641209195        0.0604768675
O                0.0000000000        0.3358790600        0.5604767723
O                0.5000000000        0.1641209466        0.0604768304
O                0.5000000000        0.8358790708        0.5604767847
O                0.5000000000        0.8328823157        0.9364627074
O                0.5000000000        0.1671177007        0.4364627356
O                0.0000000000        0.3328822980        0.9364626934
O                0.0000000000        0.6671176971        0.4364627424
H                0.0000000000        0.6622045399        0.1958665584
H                0.0000000000        0.3377954033        0.6958665074
H                0.5000000000        0.1622045777        0.1958665314
H                0.5000000000        0.8377954227        0.6958665043
H                0.0000000000        0.5423068965        0.0205298299
H                0.0000000000        0.4576930585        0.5205297691
H                0.5000000000        0.0423069312        0.0205297966
H                0.5000000000        0.9576930794        0.5205297710
H                0.6761500798        0.7694696943        0.9823320807
H                0.3238499127        0.2305303304        0.4823320926
H                0.6761500873        0.2305303304        0.4823320926
H                0.3238499202        0.7694696943        0.9823320807
H                0.1761500818        0.2694696821        0.9823320684
H                0.8238499119        0.7305303345        0.4823320903
H                0.1761500881        0.7305303345        0.4823320903
H                0.8238499182        0.2694696821        0.9823320684



     Writing config-only to output data dir ./iceIh/iceIh.save/ :
     XML data file
     NEW-OLD atomic charge density approx. for the potential

     negative rho (up, down):  2.062E-08 0.000E+00

     total cpu time spent up to now is      785.3 secs

     per-process dynamical memory:    68.4 Mb

     Self-consistent Calculation

     iteration #  1     ecut=    90.00 Ry     beta= 0.70
     Davidson diagonalization with overlap
     ethr =  1.00E-06,  avg # of iterations =  3.0

     Threshold (ethr) on eigenvalues was too large:
     Diagonalizing with lowered threshold

     Davidson diagonalization with overlap
     ethr =  5.83E-08,  avg # of iterations =  2.1

     total cpu time spent up to now is      806.2 secs

     total energy              =    -276.01798525 Ry
     estimated scf accuracy    <       0.00004079 Ry

     iteration #  2     ecut=    90.00 Ry     beta= 0.70
     Davidson diagonalization with overlap
     ethr =  6.37E-08,  avg # of iterations =  2.6

     total cpu time spent up to now is      816.2 secs

     total energy              =    -276.01799130 Ry
     estimated scf accuracy    <       0.00000898 Ry

     iteration #  3     ecut=    90.00 Ry     beta= 0.70
     Davidson diagonalization with overlap
     ethr =  1.40E-08,  avg # of iterations =  2.8

     total cpu time spent up to now is      827.0 secs

     total energy              =    -276.01799380 Ry
     estimated scf accuracy    <       0.00000089 Ry

     iteration #  4     ecut=    90.00 Ry     beta= 0.70
     Davidson diagonalization with overlap
     ethr =  1.39E-09,  avg # of iterations =  2.0

     total cpu time spent up to now is      835.0 secs

     total energy              =    -276.01799383 Ry
     estimated scf accuracy    <       0.00000010 Ry

     iteration #  5     ecut=    90.00 Ry     beta= 0.70
     Davidson diagonalization with overlap
     ethr =  1.58E-10,  avg # of iterations =  3.4

     total cpu time spent up to now is      847.3 secs

     total energy              =    -276.01799386 Ry
     estimated scf accuracy    <       0.00000009 Ry

     iteration #  6     ecut=    90.00 Ry     beta= 0.70
     Davidson diagonalization with overlap
     ethr =  1.33E-10,  avg # of iterations =  2.6

     total cpu time spent up to now is      856.9 secs

     End of self-consistent calculation

     Number of k-points >= 100: set verbosity='high' to print the bands.

     highest occupied level (ev):    -3.6407

!    total energy              =    -276.01799388 Ry
     estimated scf accuracy    <          8.0E-10 Ry

     The total energy is the sum of the following terms:
     one-electron contribution =    -240.50529393 Ry
     hartree contribution      =     140.49688641 Ry
     xc contribution           =     -67.62311581 Ry
     ewald contribution        =    -108.38647055 Ry

     convergence has been achieved in   6 iterations

     Forces acting on atoms (cartesian axes, Ry/au):

     atom    1 type  2   force =     0.00000000    0.00004524   -0.00007425
     atom    2 type  2   force =     0.00000000   -0.00004564   -0.00007360
     atom    3 type  2   force =     0.00000000    0.00004534   -0.00007410
     atom    4 type  2   force =     0.00000000   -0.00004550   -0.00007381
     atom    5 type  2   force =     0.00000000   -0.00171460    0.00095980
     atom    6 type  2   force =     0.00000000    0.00171460    0.00095981
     atom    7 type  2   force =     0.00000000   -0.00171456    0.00095978
     atom    8 type  2   force =     0.00000000    0.00171463    0.00095983
     atom    9 type  1   force =     0.00000000    0.00103431    0.00037510
     atom   10 type  1   force =     0.00000000   -0.00103427    0.00037462
     atom   11 type  1   force =     0.00000000    0.00103429    0.00037499
     atom   12 type  1   force =     0.00000000   -0.00103427    0.00037477
     atom   13 type  1   force =     0.00000000    0.00060841   -0.00057740
     atom   14 type  1   force =     0.00000000   -0.00060802   -0.00057747
     atom   15 type  1   force =     0.00000000    0.00060830   -0.00057740
     atom   16 type  1   force =     0.00000000   -0.00060815   -0.00057744
     atom   17 type  1   force =     0.00047805    0.00028484   -0.00034164
     atom   18 type  1   force =    -0.00047805   -0.00028485   -0.00034167
     atom   19 type  1   force =     0.00047805   -0.00028485   -0.00034167
     atom   20 type  1   force =    -0.00047805    0.00028484   -0.00034164
     atom   21 type  1   force =     0.00047807    0.00028483   -0.00034164
     atom   22 type  1   force =    -0.00047803   -0.00028487   -0.00034167
     atom   23 type  1   force =     0.00047803   -0.00028487   -0.00034167
     atom   24 type  1   force =    -0.00047807    0.00028483   -0.00034164

     Total force =     0.005152     Total SCF correction =     0.000041


     Computing stress (Cartesian axis) and pressure

          total   stress  (Ry/bohr**3)                   (kbar)     P=      -12.90
  -0.00009569   0.00000000   0.00000000          -14.08        0.00        0.00
   0.00000000  -0.00008532  -0.00000000            0.00      -12.55       -0.00
   0.00000000  -0.00000000  -0.00008205            0.00       -0.00      -12.07

     Energy error            =      1.0E-04 Ry
     Gradient error          =      1.7E-03 Ry/Bohr

     number of scf cycles    =   9
     number of bfgs steps    =   8

     energy             old  =    -276.0178933183 Ry
     energy             new  =    -276.0179938800 Ry

     CASE: energy            _new < energy            _old

     new trust radius        =       0.0052928682 bohr
     new conv_thr            =       0.0000000010 Ry


ATOMIC_POSITIONS (crystal)
O                0.0000000000        0.6642631096        0.0604994445
O                0.0000000000        0.3357368276        0.5604994230
O                0.5000000000        0.1642631477        0.0604994262
O                0.5000000000        0.8357368539        0.5604994128
O                0.5000000000        0.8327458639        0.9368125722
O                0.5000000000        0.1672541526        0.4368126010
O                0.0000000000        0.3327458511        0.9368125570
O                0.0000000000        0.6672541513        0.4368126114
H                0.0000000000        0.6623891834        0.1959236145
H                0.0000000000        0.3376107708        0.6959235132
H                0.5000000000        0.1623892153        0.1959235769
H                0.5000000000        0.8376107882        0.6959235265
H                0.0000000000        0.5425073414        0.0203704641
H                0.0000000000        0.4574926587        0.5203704017
H                0.5000000000        0.0425073633        0.0203704342
H                0.5000000000        0.9574926646        0.5203704055
H                0.6764766770        0.7693447899        0.9821970107
H                0.3235233171        0.2306552290        0.4821970172
H                0.6764766829        0.2306552290        0.4821970172
H                0.3235233230        0.7693447899        0.9821970107
H                0.1764766825        0.2693447774        0.9821969967
H                0.8235233203        0.7306552320        0.4821970158
H                0.1764766797        0.7306552320        0.4821970158
H                0.8235233175        0.2693447774        0.9821969967



     Writing config-only to output data dir ./iceIh/iceIh.save/ :
     XML data file
     NEW-OLD atomic charge density approx. for the potential

     total cpu time spent up to now is      867.0 secs

     per-process dynamical memory:    68.4 Mb

     Self-consistent Calculation

     iteration #  1     ecut=    90.00 Ry     beta= 0.70
     Davidson diagonalization with overlap
     ethr =  1.00E-06,  avg # of iterations =  3.0

     Threshold (ethr) on eigenvalues was too large:
     Diagonalizing with lowered threshold

     Davidson diagonalization with overlap
     ethr =  3.23E-08,  avg # of iterations =  2.2

     total cpu time spent up to now is      887.8 secs

     total energy              =    -276.01802807 Ry
     estimated scf accuracy    <       0.00002205 Ry

     iteration #  2     ecut=    90.00 Ry     beta= 0.70
     Davidson diagonalization with overlap
     ethr =  3.44E-08,  avg # of iterations =  3.0

     total cpu time spent up to now is      899.0 secs

     total energy              =    -276.01803143 Ry
     estimated scf accuracy    <       0.00000902 Ry

     iteration #  3     ecut=    90.00 Ry     beta= 0.70
     Davidson diagonalization with overlap
     ethr =  1.41E-08,  avg # of iterations =  3.0

     total cpu time spent up to now is      909.9 secs

     total energy              =    -276.01803384 Ry
     estimated scf accuracy    <       0.00000040 Ry

     iteration #  4     ecut=    90.00 Ry     beta= 0.70
     Davidson diagonalization with overlap
     ethr =  6.19E-10,  avg # of iterations =  2.3

     total cpu time spent up to now is      919.2 secs

     total energy              =    -276.01803383 Ry
     estimated scf accuracy    <       0.00000014 Ry

     iteration #  5     ecut=    90.00 Ry     beta= 0.70
     Davidson diagonalization with overlap
     ethr =  2.13E-10,  avg # of iterations =  3.1

     total cpu time spent up to now is      930.7 secs

     total energy              =    -276.01803388 Ry
     estimated scf accuracy    <       0.00000002 Ry

     iteration #  6     ecut=    90.00 Ry     beta= 0.70
     Davidson diagonalization with overlap
     ethr =  3.52E-11,  avg # of iterations =  2.1

     total cpu time spent up to now is      939.6 secs

     End of self-consistent calculation

     Number of k-points >= 100: set verbosity='high' to print the bands.

     highest occupied level (ev):    -3.6435

!    total energy              =    -276.01803388 Ry
     estimated scf accuracy    <          8.6E-10 Ry

     The total energy is the sum of the following terms:
     one-electron contribution =    -240.50070532 Ry
     hartree contribution      =     140.49620369 Ry
     xc contribution           =     -67.62270672 Ry
     ewald contribution        =    -108.39082553 Ry

     convergence has been achieved in   6 iterations

     Forces acting on atoms (cartesian axes, Ry/au):

     atom    1 type  2   force =     0.00000000    0.00016423   -0.00006193
     atom    2 type  2   force =     0.00000000   -0.00016341   -0.00006310
     atom    3 type  2   force =     0.00000000    0.00016400   -0.00006221
     atom    4 type  2   force =     0.00000000   -0.00016369   -0.00006274
     atom    5 type  2   force =     0.00000000   -0.00080166   -0.00030210
     atom    6 type  2   force =     0.00000000    0.00080157   -0.00030219
     atom    7 type  2   force =     0.00000000   -0.00080170   -0.00030208
     atom    8 type  2   force =     0.00000000    0.00080152   -0.00030221
     atom    9 type  1   force =     0.00000000    0.00071916   -0.00001394
     atom   10 type  1   force =     0.00000000   -0.00071913   -0.00001307
     atom   11 type  1   force =     0.00000000    0.00071915   -0.00001373
     atom   12 type  1   force =     0.00000000   -0.00071913   -0.00001333
     atom   13 type  1   force =     0.00000000    0.00040641   -0.00010332
     atom   14 type  1   force =     0.00000000   -0.00040715   -0.00010305
     atom   15 type  1   force =     0.00000000    0.00040661   -0.00010324
     atom   16 type  1   force =     0.00000000   -0.00040689   -0.00010313
     atom   17 type  1   force =    -0.00005504   -0.00001700    0.00024065
     atom   18 type  1   force =     0.00005499    0.00001701    0.00024069
     atom   19 type  1   force =    -0.00005499    0.00001701    0.00024069
     atom   20 type  1   force =     0.00005504   -0.00001700    0.00024065
     atom   21 type  1   force =    -0.00005507   -0.00001697    0.00024065
     atom   22 type  1   force =     0.00005496    0.00001703    0.00024070
     atom   23 type  1   force =    -0.00005496    0.00001703    0.00024070
     atom   24 type  1   force =     0.00005507   -0.00001697    0.00024065

     Total force =     0.002514     Total SCF correction =     0.000036


     Computing stress (Cartesian axis) and pressure

          total   stress  (Ry/bohr**3)                   (kbar)     P=      -13.06
  -0.00009676   0.00000000   0.00000000          -14.23        0.00        0.00
   0.00000000  -0.00008429   0.00000000            0.00      -12.40        0.00
   0.00000000   0.00000000  -0.00008523            0.00        0.00      -12.54

     Energy error            =      4.0E-05 Ry
     Gradient error          =      8.0E-04 Ry/Bohr

     bfgs converged in  10 scf cycles and   9 bfgs steps
     (criteria: energy <  1.0E-04 Ry, force <  1.0E-03 Ry/Bohr)

     End of BFGS Geometry Optimization

     Final energy             =    -276.0180338812 Ry

     File ./iceIh/iceIh.bfgs deleted, as requested
Begin final coordinates

ATOMIC_POSITIONS (crystal)
O                0.0000000000        0.6642631096        0.0604994445
O                0.0000000000        0.3357368276        0.5604994230
O                0.5000000000        0.1642631477        0.0604994262
O                0.5000000000        0.8357368539        0.5604994128
O                0.5000000000        0.8327458639        0.9368125722
O                0.5000000000        0.1672541526        0.4368126010
O                0.0000000000        0.3327458511        0.9368125570
O                0.0000000000        0.6672541513        0.4368126114
H                0.0000000000        0.6623891834        0.1959236145
H                0.0000000000        0.3376107708        0.6959235132
H                0.5000000000        0.1623892153        0.1959235769
H                0.5000000000        0.8376107882        0.6959235265
H                0.0000000000        0.5425073414        0.0203704641
H                0.0000000000        0.4574926587        0.5203704017
H                0.5000000000        0.0425073633        0.0203704342
H                0.5000000000        0.9574926646        0.5203704055
H                0.6764766770        0.7693447899        0.9821970107
H                0.3235233171        0.2306552290        0.4821970172
H                0.6764766829        0.2306552290        0.4821970172
H                0.3235233230        0.7693447899        0.9821970107
H                0.1764766825        0.2693447774        0.9821969967
H                0.8235233203        0.7306552320        0.4821970158
H                0.1764766797        0.7306552320        0.4821970158
H                0.8235233175        0.2693447774        0.9821969967
End final coordinates



     Writing all to output data dir ./iceIh/iceIh.save/ :
     XML data file, charge density, pseudopotentials, collected wavefunctions

     init_run     :      4.69s CPU      4.76s WALL (       1 calls)
     electrons    :    830.86s CPU    844.53s WALL (      10 calls)
     update_pot   :      0.12s CPU      0.13s WALL (       9 calls)
     forces       :      6.00s CPU      6.03s WALL (      10 calls)
     stress       :     91.29s CPU     91.37s WALL (      10 calls)

     Called by init_run:
     wfcinit      :      4.23s CPU      4.28s WALL (       1 calls)
     potinit      :      0.03s CPU      0.04s WALL (       1 calls)
     hinit0       :      0.33s CPU      0.34s WALL (       1 calls)

     Called by electrons:
     c_bands      :    741.76s CPU    753.17s WALL (      77 calls)
     sum_band     :     87.74s CPU     88.68s WALL (      77 calls)
     v_of_rho     :      0.92s CPU      0.93s WALL (      83 calls)
     newd         :      0.19s CPU      0.19s WALL (      83 calls)
     mix_rho      :      0.15s CPU      0.15s WALL (      77 calls)

     Called by c_bands:
     init_us_2    :     11.36s CPU     11.76s WALL (   20125 calls)
     cegterg      :    712.18s CPU    718.23s WALL (    8855 calls)

     Called by *egterg:
     cdiaghg      :     57.27s CPU     57.50s WALL (   32983 calls)
     h_psi        :    538.01s CPU    543.43s WALL (   34593 calls)
     s_psi        :     22.05s CPU     22.15s WALL (   34593 calls)
     g_psi        :      2.05s CPU      2.06s WALL (   25623 calls)

     Called by h_psi:
     h_psi:calbec :     37.00s CPU     37.30s WALL (   34593 calls)
     vloc_psi     :    473.10s CPU    477.96s WALL (   34593 calls)
     add_vuspsi   :     23.67s CPU     23.84s WALL (   34593 calls)

     General routines
     calbec       :     50.16s CPU     50.59s WALL (   49198 calls)
     fft          :      0.82s CPU      0.83s WALL (    1006 calls)
     ffts         :      0.04s CPU      0.04s WALL (      77 calls)
     fftw         :    494.03s CPU    498.99s WALL ( 2073612 calls)

     Parallel routines

     PWSCF        :  15m36.37s CPU  16m 0.35s WALL


   This run was terminated on:  14:14:59   1Apr2026            

=------------------------------------------------------------------------------=
   JOB DONE.
=------------------------------------------------------------------------------=
