
     Program PWSCF v.7.3.1 starts on 24Mar2026 at 20:46:30 

     This program is part of the open-source Quantum ESPRESSO suite
     for quantum simulation of materials; please cite
         "P. Giannozzi et al., J. Phys.:Condens. Matter 21 395502 (2009);
         "P. Giannozzi et al., J. Phys.:Condens. Matter 29 465901 (2017);
         "P. Giannozzi et al., J. Chem. Phys. 152 154105 (2020);
          URL http://www.quantum-espresso.org", 
     in publications or presentations arising from this work. More details at
     http://www.quantum-espresso.org/quote

     Parallel version (MPI), running on   128 processors

     MPI processes distributed on     1 nodes
     237061 MiB available memory on the printing compute node when the environment starts

     Waiting for input...
     Reading input from standard input

     Current dimensions of program PWSCF are:
     Max number of different atomic species (ntypx) = 10
     Max number of k-points (npk) =  40000
     Max angular momentum in pseudopotentials (lmaxx) =  4
     Found identity + ( -0.5000  0.5000 -0.0000) symmetry
     This is a supercell, fractional translations are disabled

     K-points division:     npool     =       4
     R & G space division:  proc/nbgrp/npool/nimage =      32
     Subspace diagonalization in iterative solution of the eigenvalue problem:
     a serial algorithm will be used


     Parallelization info
     --------------------
     sticks:   dense  smooth     PW     G-vecs:    dense   smooth      PW
     Min         113     113     31                 6439     6439     929
     Max         114     114     32                 6448     6448     934
     Sum        3647    3647   1017               206243   206243   29785

     Using Slab Decomposition



     bravais-lattice index     =            8
     lattice parameter (alat)  =       8.5926  a.u.
     unit-cell volume          =    1788.6889 (a.u.)^3
     number of atoms/cell      =           24
     number of atomic types    =            2
     number of electrons       =        64.00
     number of Kohn-Sham states=           32
     kinetic-energy cutoff     =      90.0000  Ry
     charge density cutoff     =     360.0000  Ry
     scf convergence threshold =      1.0E-07
     mixing beta               =       0.7000
     number of iterations used =            8  plain     mixing
     Exchange-correlation=  SLA  PW   PBE  PBE
                           (   1   4   3   4   0   0   0)

     celldm(1)=   8.592622  celldm(2)=   1.732119  celldm(3)=   1.627721
     celldm(4)=   0.000000  celldm(5)=   0.000000  celldm(6)=   0.000000

     crystal axes: (cart. coord. in units of alat)
               a(1) = (   1.000000   0.000000   0.000000 )  
               a(2) = (   0.000000   1.732119   0.000000 )  
               a(3) = (   0.000000   0.000000   1.627721 )  

     reciprocal axes: (cart. coord. in units 2 pi/alat)
               b(1) = (  1.000000  0.000000  0.000000 )  
               b(2) = (  0.000000  0.577328  0.000000 )  
               b(3) = (  0.000000  0.000000  0.614356 )  


     PseudoPot. # 1 for H  read from file:
     ./H.pbe-van_ak.UPF
     MD5 check sum: 077eb6d537518a38cb46c6de387227b7
     Pseudo is Ultrasoft, Zval =  1.0
     Generated by new atomic code, or converted to UPF format
     Using radial grid of  615 points,  1 beta functions with: 
                l(1) =   0
     Q(r) pseudized with  8 coefficients,  rinner =    0.800

     PseudoPot. # 2 for O  read from file:
     ./O.pbe-van_ak.UPF
     MD5 check sum: 78c19812648e8988a0fe644b0f25305e
     Pseudo is Ultrasoft, Zval =  6.0
     Generated by new atomic code, or converted to UPF format
     Using radial grid of  737 points,  4 beta functions with: 
                l(1) =   0
                l(2) =   0
                l(3) =   1
                l(4) =   1
     Q(r) pseudized with  8 coefficients,  rinner =    0.800   0.800   0.800


     atomic species   valence    mass     pseudopotential
     H                 1.00     1.00800     H ( 1.00)
     O                 6.00    16.00000     O ( 1.00)

      2 Sym. Ops. (no inversion) found



   Cartesian axes

     site n.     atom                  positions (alat units)
         1        O      tau(   1) = (   0.0000000   1.1484866   0.0984416  )
         2        O      tau(   2) = (   0.0000000   0.5836324   0.9123021  )
         3        O      tau(   3) = (   0.5000000   0.2824271   0.0984415  )
         4        O      tau(   4) = (   0.5000000   1.4496920   0.9123021  )
         5        O      tau(   5) = (   0.5000000   1.4402433   1.5187349  )
         6        O      tau(   6) = (   0.5000000   0.2918758   0.7048744  )
         7        O      tau(   7) = (   0.0000000   0.5741838   1.5187348  )
         8        O      tau(   8) = (   0.0000000   1.1579353   0.7048743  )
         9        H      tau(   9) = (   0.0000000   1.1487418   0.3216685  )
        10        H      tau(  10) = (   0.0000000   0.5833772   1.1355290  )
        11        H      tau(  11) = (   0.5000000   0.2826823   0.3216685  )
        12        H      tau(  12) = (   0.5000000   1.4494367   1.1355290  )
        13        H      tau(  13) = (   0.0000000   0.9333594   0.0315143  )
        14        H      tau(  14) = (   0.0000000   0.7987597   0.8453748  )
        15        H      tau(  15) = (   0.5000000   0.0672998   0.0315143  )
        16        H      tau(  16) = (   0.5000000   1.6648192   0.8453748  )
        17        H      tau(  17) = (   0.6820699   1.3365463   1.6012691  )
        18        H      tau(  18) = (   0.3179301   0.3955728   0.7874086  )
        19        H      tau(  19) = (   0.6820699   0.3955728   0.7874086  )
        20        H      tau(  20) = (   0.3179301   1.3365463   1.6012691  )
        21        H      tau(  21) = (   0.1820699   0.4704867   1.6012691  )
        22        H      tau(  22) = (   0.8179301   1.2616323   0.7874086  )
        23        H      tau(  23) = (   0.1820699   1.2616323   0.7874086  )
        24        H      tau(  24) = (   0.8179301   0.4704867   1.6012691  )

     number of k points=   460

     Number of k-points >= 100: set verbosity='high' to print them.

     Dense  grid:   206243 G-vectors     FFT dimensions: (  54,  90,  90)

     Estimated max dynamical RAM per process >      53.91 MB

     Estimated total dynamical RAM >       6.59 GB

     Initial potential from superposition of free atoms

     starting charge      63.9998, renormalised to      64.0000
     Starting wfcs are   48 randomized atomic wfcs

     total cpu time spent up to now is        5.1 secs

     per-process dynamical memory:    61.3 Mb

     Self-consistent Calculation

     iteration #  1     ecut=    90.00 Ry     beta= 0.70
     Davidson diagonalization with overlap
     ethr =  1.00E-02,  avg # of iterations =  2.0

     total cpu time spent up to now is       14.5 secs

     total energy              =    -274.93227073 Ry
     estimated scf accuracy    <       2.54655865 Ry

     iteration #  2     ecut=    90.00 Ry     beta= 0.70
     Davidson diagonalization with overlap
     ethr =  3.98E-03,  avg # of iterations =  3.0

     total cpu time spent up to now is       26.9 secs

     total energy              =    -275.72773282 Ry
     estimated scf accuracy    <       1.67242022 Ry

     iteration #  3     ecut=    90.00 Ry     beta= 0.70
     Davidson diagonalization with overlap
     ethr =  2.61E-03,  avg # of iterations =  2.0

     total cpu time spent up to now is       36.2 secs

     total energy              =    -275.95044293 Ry
     estimated scf accuracy    <       0.06763924 Ry

     iteration #  4     ecut=    90.00 Ry     beta= 0.70
     Davidson diagonalization with overlap
     ethr =  1.06E-04,  avg # of iterations =  4.0

     negative rho (up, down):  1.864E-07 0.000E+00

     total cpu time spent up to now is       50.2 secs

     total energy              =    -276.00300732 Ry
     estimated scf accuracy    <       0.08203313 Ry

     iteration #  5     ecut=    90.00 Ry     beta= 0.70
     Davidson diagonalization with overlap
     ethr =  1.06E-04,  avg # of iterations =  2.0

     negative rho (up, down):  3.718E-07 0.000E+00

     total cpu time spent up to now is       58.2 secs

     total energy              =    -276.00589624 Ry
     estimated scf accuracy    <       0.01258929 Ry

     iteration #  6     ecut=    90.00 Ry     beta= 0.70
     Davidson diagonalization with overlap
     ethr =  1.97E-05,  avg # of iterations =  2.0

     negative rho (up, down):  6.153E-07 0.000E+00

     total cpu time spent up to now is       67.1 secs

     total energy              =    -276.00580091 Ry
     estimated scf accuracy    <       0.00311074 Ry

     iteration #  7     ecut=    90.00 Ry     beta= 0.70
     Davidson diagonalization with overlap
     ethr =  4.86E-06,  avg # of iterations =  2.2

     negative rho (up, down):  6.147E-07 0.000E+00

     total cpu time spent up to now is       77.5 secs

     total energy              =    -276.00750046 Ry
     estimated scf accuracy    <       0.00043569 Ry

     iteration #  8     ecut=    90.00 Ry     beta= 0.70
     Davidson diagonalization with overlap
     ethr =  6.81E-07,  avg # of iterations =  3.0

     negative rho (up, down):  5.669E-07 0.000E+00

     total cpu time spent up to now is       87.4 secs

     total energy              =    -276.00740037 Ry
     estimated scf accuracy    <       0.00121780 Ry

     iteration #  9     ecut=    90.00 Ry     beta= 0.70
     Davidson diagonalization with overlap
     ethr =  6.81E-07,  avg # of iterations =  1.0

     negative rho (up, down):  4.912E-07 0.000E+00

     total cpu time spent up to now is       94.4 secs

     total energy              =    -276.00710359 Ry
     estimated scf accuracy    <       0.00078825 Ry

     iteration # 10     ecut=    90.00 Ry     beta= 0.70
     Davidson diagonalization with overlap
     ethr =  6.81E-07,  avg # of iterations =  2.0

     negative rho (up, down):  4.713E-07 0.000E+00

     total cpu time spent up to now is      104.2 secs

     total energy              =    -276.00716020 Ry
     estimated scf accuracy    <       0.00008357 Ry

     iteration # 11     ecut=    90.00 Ry     beta= 0.70
     Davidson diagonalization with overlap
     ethr =  1.31E-07,  avg # of iterations =  3.0

     negative rho (up, down):  4.673E-07 0.000E+00

     total cpu time spent up to now is      114.6 secs

     total energy              =    -276.00718469 Ry
     estimated scf accuracy    <       0.00000076 Ry

     iteration # 12     ecut=    90.00 Ry     beta= 0.70
     Davidson diagonalization with overlap
     ethr =  1.19E-09,  avg # of iterations =  5.8

     negative rho (up, down):  4.784E-07 0.000E+00

     total cpu time spent up to now is      131.2 secs

     total energy              =    -276.00718592 Ry
     estimated scf accuracy    <       0.00000176 Ry

     iteration # 13     ecut=    90.00 Ry     beta= 0.70
     Davidson diagonalization with overlap
     ethr =  1.19E-09,  avg # of iterations =  4.0

     negative rho (up, down):  4.800E-07 0.000E+00

     total cpu time spent up to now is      144.4 secs

     total energy              =    -276.00718653 Ry
     estimated scf accuracy    <       0.00000035 Ry

     iteration # 14     ecut=    90.00 Ry     beta= 0.70
     Davidson diagonalization with overlap
     ethr =  5.54E-10,  avg # of iterations =  1.0

     negative rho (up, down):  4.779E-07 0.000E+00

     total cpu time spent up to now is      151.4 secs

     total energy              =    -276.00718641 Ry
     estimated scf accuracy    <       0.00000025 Ry

     iteration # 15     ecut=    90.00 Ry     beta= 0.70
     Davidson diagonalization with overlap
     ethr =  3.92E-10,  avg # of iterations =  2.0

     negative rho (up, down):  4.777E-07 0.000E+00

     total cpu time spent up to now is      161.0 secs

     End of self-consistent calculation

     Number of k-points >= 100: set verbosity='high' to print the bands.

     highest occupied level (ev):    -3.5776

!    total energy              =    -276.00718645 Ry
     estimated scf accuracy    <          5.8E-09 Ry

     The total energy is the sum of the following terms:
     one-electron contribution =    -238.45958039 Ry
     hartree contribution      =     139.55529358 Ry
     xc contribution           =     -67.38909723 Ry
     ewald contribution        =    -109.71380241 Ry

     convergence has been achieved in  15 iterations

     Forces acting on atoms (cartesian axes, Ry/au):

     atom    1 type  2   force =     0.00000000   -0.01807136    0.00567078
     atom    2 type  2   force =     0.00000000    0.01807122    0.00567078
     atom    3 type  2   force =     0.00000000   -0.01807147    0.00567077
     atom    4 type  2   force =     0.00000000    0.01807131    0.00567077
     atom    5 type  2   force =     0.00000000   -0.01534007    0.02160914
     atom    6 type  2   force =     0.00000000    0.01534003    0.02160916
     atom    7 type  2   force =     0.00000000   -0.01534016    0.02160920
     atom    8 type  2   force =     0.00000000    0.01534011    0.02160920
     atom    9 type  1   force =     0.00000000   -0.00235634   -0.01557671
     atom   10 type  1   force =     0.00000000    0.00235637   -0.01557664
     atom   11 type  1   force =     0.00000000   -0.00235635   -0.01557670
     atom   12 type  1   force =     0.00000000    0.00235638   -0.01557666
     atom   13 type  1   force =     0.00000000    0.02581523    0.00824211
     atom   14 type  1   force =     0.00000000   -0.02581515    0.00824210
     atom   15 type  1   force =     0.00000000    0.02581529    0.00824213
     atom   16 type  1   force =     0.00000000   -0.02581516    0.00824212
     atom   17 type  1   force =    -0.02620040    0.00540562   -0.00997269
     atom   18 type  1   force =     0.02620037   -0.00540560   -0.00997268
     atom   19 type  1   force =    -0.02620037   -0.00540560   -0.00997268
     atom   20 type  1   force =     0.02620040    0.00540562   -0.00997269
     atom   21 type  1   force =    -0.02620035    0.00540563   -0.00997271
     atom   22 type  1   force =     0.02620032   -0.00540560   -0.00997270
     atom   23 type  1   force =    -0.02620032   -0.00540560   -0.00997270
     atom   24 type  1   force =     0.02620035    0.00540563   -0.00997271

     Total force =     0.121224     Total SCF correction =     0.000064


     Computing stress (Cartesian axis) and pressure

          total   stress  (Ry/bohr**3)                   (kbar)     P=      -38.31
  -0.00031295   0.00000000   0.00000000          -46.04        0.00        0.00
   0.00000000  -0.00026217  -0.00000000            0.00      -38.57       -0.00
   0.00000000  -0.00000000  -0.00020607            0.00       -0.00      -30.31


     Writing all to output data dir ./iceIh/iceIh.save/ :
     XML data file, charge density, pseudopotentials, collected wavefunctions

     init_run     :      4.67s CPU      4.79s WALL (       1 calls)
     electrons    :    153.59s CPU    155.96s WALL (       1 calls)
     forces       :      0.60s CPU      0.62s WALL (       1 calls)
     stress       :      9.16s CPU      9.17s WALL (       1 calls)

     Called by init_run:
     wfcinit      :      4.24s CPU      4.30s WALL (       1 calls)
     potinit      :      0.03s CPU      0.04s WALL (       1 calls)
     hinit0       :      0.34s CPU      0.34s WALL (       1 calls)

     Called by electrons:
     c_bands      :    136.39s CPU    138.45s WALL (      15 calls)
     sum_band     :     16.91s CPU     17.16s WALL (      15 calls)
     v_of_rho     :      0.18s CPU      0.19s WALL (      16 calls)
     newd         :      0.03s CPU      0.04s WALL (      16 calls)
     mix_rho      :      0.04s CPU      0.05s WALL (      15 calls)

     Called by c_bands:
     init_us_2    :      2.28s CPU      2.36s WALL (    3795 calls)
     cegterg      :    131.86s CPU    133.08s WALL (    1725 calls)

     Called by *egterg:
     cdiaghg      :     10.81s CPU     10.86s WALL (    6218 calls)
     h_psi        :    103.00s CPU    104.11s WALL (    6333 calls)
     s_psi        :      4.25s CPU      4.28s WALL (    6333 calls)
     g_psi        :      0.37s CPU      0.38s WALL (    4493 calls)

     Called by h_psi:
     h_psi:calbec :      6.94s CPU      7.02s WALL (    6333 calls)
     vloc_psi     :     90.79s CPU     91.77s WALL (    6333 calls)
     add_vuspsi   :      4.45s CPU      4.50s WALL (    6333 calls)

     General routines
     calbec       :      8.97s CPU      9.08s WALL (    8633 calls)
     fft          :      0.41s CPU      0.41s WALL (     184 calls)
     ffts         :      0.01s CPU      0.01s WALL (      15 calls)
     fftw         :     95.09s CPU     96.11s WALL (  398838 calls)

     Parallel routines

     PWSCF        :   2m51.26s CPU   2m57.57s WALL


   This run was terminated on:  20:49:28  24Mar2026            

=------------------------------------------------------------------------------=
   JOB DONE.
=------------------------------------------------------------------------------=
