
     Program PWSCF v.7.3.1 starts on 24Mar2026 at 20:49:30 

     This program is part of the open-source Quantum ESPRESSO suite
     for quantum simulation of materials; please cite
         "P. Giannozzi et al., J. Phys.:Condens. Matter 21 395502 (2009);
         "P. Giannozzi et al., J. Phys.:Condens. Matter 29 465901 (2017);
         "P. Giannozzi et al., J. Chem. Phys. 152 154105 (2020);
          URL http://www.quantum-espresso.org", 
     in publications or presentations arising from this work. More details at
     http://www.quantum-espresso.org/quote

     Parallel version (MPI), running on   128 processors

     MPI processes distributed on     1 nodes
     236986 MiB available memory on the printing compute node when the environment starts

     Waiting for input...
     Reading input from standard input

     Current dimensions of program PWSCF are:
     Max number of different atomic species (ntypx) = 10
     Max number of k-points (npk) =  40000
     Max angular momentum in pseudopotentials (lmaxx) =  4
     Found identity + ( -0.5000  0.5000 -0.0000) symmetry
     This is a supercell, fractional translations are disabled

     K-points division:     npool     =       4
     R & G space division:  proc/nbgrp/npool/nimage =      32
     Subspace diagonalization in iterative solution of the eigenvalue problem:
     a serial algorithm will be used


     Parallelization info
     --------------------
     sticks:   dense  smooth     PW     G-vecs:    dense   smooth      PW
     Min         114     114     31                 6478     6478     935
     Max         115     115     32                 6483     6483     940
     Sum        3653    3653   1017               207393   207393   29997

     Using Slab Decomposition



     bravais-lattice index     =            8
     lattice parameter (alat)  =       8.6096  a.u.
     unit-cell volume          =    1799.3358 (a.u.)^3
     number of atoms/cell      =           24
     number of atomic types    =            2
     number of electrons       =        64.00
     number of Kohn-Sham states=           32
     kinetic-energy cutoff     =      90.0000  Ry
     charge density cutoff     =     360.0000  Ry
     scf convergence threshold =      1.0E-07
     mixing beta               =       0.7000
     number of iterations used =            8  plain     mixing
     Exchange-correlation=  SLA  PW   PBE  PBE
                           (   1   4   3   4   0   0   0)

     celldm(1)=   8.609637  celldm(2)=   1.732119  celldm(3)=   1.627721
     celldm(4)=   0.000000  celldm(5)=   0.000000  celldm(6)=   0.000000

     crystal axes: (cart. coord. in units of alat)
               a(1) = (   1.000000   0.000000   0.000000 )  
               a(2) = (   0.000000   1.732119   0.000000 )  
               a(3) = (   0.000000   0.000000   1.627721 )  

     reciprocal axes: (cart. coord. in units 2 pi/alat)
               b(1) = (  1.000000  0.000000  0.000000 )  
               b(2) = (  0.000000  0.577328  0.000000 )  
               b(3) = (  0.000000  0.000000  0.614356 )  


     PseudoPot. # 1 for H  read from file:
     ./H.pbe-van_ak.UPF
     MD5 check sum: 077eb6d537518a38cb46c6de387227b7
     Pseudo is Ultrasoft, Zval =  1.0
     Generated by new atomic code, or converted to UPF format
     Using radial grid of  615 points,  1 beta functions with: 
                l(1) =   0
     Q(r) pseudized with  8 coefficients,  rinner =    0.800

     PseudoPot. # 2 for O  read from file:
     ./O.pbe-van_ak.UPF
     MD5 check sum: 78c19812648e8988a0fe644b0f25305e
     Pseudo is Ultrasoft, Zval =  6.0
     Generated by new atomic code, or converted to UPF format
     Using radial grid of  737 points,  4 beta functions with: 
                l(1) =   0
                l(2) =   0
                l(3) =   1
                l(4) =   1
     Q(r) pseudized with  8 coefficients,  rinner =    0.800   0.800   0.800


     atomic species   valence    mass     pseudopotential
     H                 1.00     1.00800     H ( 1.00)
     O                 6.00    16.00000     O ( 1.00)

      2 Sym. Ops. (no inversion) found



   Cartesian axes

     site n.     atom                  positions (alat units)
         1        O      tau(   1) = (   0.0000000   1.1484866   0.0984416  )
         2        O      tau(   2) = (   0.0000000   0.5836324   0.9123021  )
         3        O      tau(   3) = (   0.5000000   0.2824271   0.0984415  )
         4        O      tau(   4) = (   0.5000000   1.4496920   0.9123021  )
         5        O      tau(   5) = (   0.5000000   1.4402433   1.5187349  )
         6        O      tau(   6) = (   0.5000000   0.2918758   0.7048744  )
         7        O      tau(   7) = (   0.0000000   0.5741838   1.5187348  )
         8        O      tau(   8) = (   0.0000000   1.1579353   0.7048743  )
         9        H      tau(   9) = (   0.0000000   1.1487418   0.3216685  )
        10        H      tau(  10) = (   0.0000000   0.5833772   1.1355290  )
        11        H      tau(  11) = (   0.5000000   0.2826823   0.3216685  )
        12        H      tau(  12) = (   0.5000000   1.4494367   1.1355290  )
        13        H      tau(  13) = (   0.0000000   0.9333594   0.0315143  )
        14        H      tau(  14) = (   0.0000000   0.7987597   0.8453748  )
        15        H      tau(  15) = (   0.5000000   0.0672998   0.0315143  )
        16        H      tau(  16) = (   0.5000000   1.6648192   0.8453748  )
        17        H      tau(  17) = (   0.6820699   1.3365463   1.6012691  )
        18        H      tau(  18) = (   0.3179301   0.3955728   0.7874086  )
        19        H      tau(  19) = (   0.6820699   0.3955728   0.7874086  )
        20        H      tau(  20) = (   0.3179301   1.3365463   1.6012691  )
        21        H      tau(  21) = (   0.1820699   0.4704867   1.6012691  )
        22        H      tau(  22) = (   0.8179301   1.2616323   0.7874086  )
        23        H      tau(  23) = (   0.1820699   1.2616323   0.7874086  )
        24        H      tau(  24) = (   0.8179301   0.4704867   1.6012691  )

     number of k points=   460

     Number of k-points >= 100: set verbosity='high' to print them.

     Dense  grid:   207393 G-vectors     FFT dimensions: (  54,  96,  90)

     Estimated max dynamical RAM per process >      54.30 MB

     Estimated total dynamical RAM >       6.64 GB

     Initial potential from superposition of free atoms

     starting charge      63.9998, renormalised to      64.0000
     Starting wfcs are   48 randomized atomic wfcs

     total cpu time spent up to now is        5.3 secs

     per-process dynamical memory:    61.7 Mb

     Self-consistent Calculation

     iteration #  1     ecut=    90.00 Ry     beta= 0.70
     Davidson diagonalization with overlap
     ethr =  1.00E-02,  avg # of iterations =  2.0

     total cpu time spent up to now is       14.7 secs

     total energy              =    -274.93020350 Ry
     estimated scf accuracy    <       2.54039692 Ry

     iteration #  2     ecut=    90.00 Ry     beta= 0.70
     Davidson diagonalization with overlap
     ethr =  3.97E-03,  avg # of iterations =  3.0

     total cpu time spent up to now is       27.3 secs

     total energy              =    -275.72282131 Ry
     estimated scf accuracy    <       1.68426376 Ry

     iteration #  3     ecut=    90.00 Ry     beta= 0.70
     Davidson diagonalization with overlap
     ethr =  2.63E-03,  avg # of iterations =  2.0

     total cpu time spent up to now is       36.8 secs

     total energy              =    -275.94715733 Ry
     estimated scf accuracy    <       0.06833417 Ry

     iteration #  4     ecut=    90.00 Ry     beta= 0.70
     Davidson diagonalization with overlap
     ethr =  1.07E-04,  avg # of iterations =  4.0

     total cpu time spent up to now is       51.0 secs

     total energy              =    -276.00027461 Ry
     estimated scf accuracy    <       0.08281775 Ry

     iteration #  5     ecut=    90.00 Ry     beta= 0.70
     Davidson diagonalization with overlap
     ethr =  1.07E-04,  avg # of iterations =  2.0

     total cpu time spent up to now is       59.2 secs

     total energy              =    -276.00305417 Ry
     estimated scf accuracy    <       0.01272406 Ry

     iteration #  6     ecut=    90.00 Ry     beta= 0.70
     Davidson diagonalization with overlap
     ethr =  1.99E-05,  avg # of iterations =  2.0

     total cpu time spent up to now is       68.3 secs

     total energy              =    -276.00315021 Ry
     estimated scf accuracy    <       0.00290617 Ry

     iteration #  7     ecut=    90.00 Ry     beta= 0.70
     Davidson diagonalization with overlap
     ethr =  4.54E-06,  avg # of iterations =  2.4

     total cpu time spent up to now is       78.9 secs

     total energy              =    -276.00480951 Ry
     estimated scf accuracy    <       0.00048136 Ry

     iteration #  8     ecut=    90.00 Ry     beta= 0.70
     Davidson diagonalization with overlap
     ethr =  7.52E-07,  avg # of iterations =  2.4

     total cpu time spent up to now is       88.6 secs

     total energy              =    -276.00464237 Ry
     estimated scf accuracy    <       0.00115390 Ry

     iteration #  9     ecut=    90.00 Ry     beta= 0.70
     Davidson diagonalization with overlap
     ethr =  7.52E-07,  avg # of iterations =  1.0

     total cpu time spent up to now is       95.8 secs

     total energy              =    -276.00439656 Ry
     estimated scf accuracy    <       0.00060709 Ry

     iteration # 10     ecut=    90.00 Ry     beta= 0.70
     Davidson diagonalization with overlap
     ethr =  7.52E-07,  avg # of iterations =  2.0

     total cpu time spent up to now is      105.6 secs

     total energy              =    -276.00447925 Ry
     estimated scf accuracy    <       0.00002663 Ry

     iteration # 11     ecut=    90.00 Ry     beta= 0.70
     Davidson diagonalization with overlap
     ethr =  4.16E-08,  avg # of iterations =  3.0

     total cpu time spent up to now is      117.5 secs

     total energy              =    -276.00449195 Ry
     estimated scf accuracy    <       0.00000049 Ry

     iteration # 12     ecut=    90.00 Ry     beta= 0.70
     Davidson diagonalization with overlap
     ethr =  7.72E-10,  avg # of iterations =  3.4

     total cpu time spent up to now is      130.1 secs

     total energy              =    -276.00449222 Ry
     estimated scf accuracy    <       0.00000027 Ry

     iteration # 13     ecut=    90.00 Ry     beta= 0.70
     Davidson diagonalization with overlap
     ethr =  4.21E-10,  avg # of iterations =  3.4

     total cpu time spent up to now is      143.2 secs

     total energy              =    -276.00449227 Ry
     estimated scf accuracy    <       0.00000030 Ry

     iteration # 14     ecut=    90.00 Ry     beta= 0.70
     Davidson diagonalization with overlap
     ethr =  4.21E-10,  avg # of iterations =  2.0

     total cpu time spent up to now is      152.5 secs

     End of self-consistent calculation

     Number of k-points >= 100: set verbosity='high' to print the bands.

     highest occupied level (ev):    -3.5996

!    total energy              =    -276.00449228 Ry
     estimated scf accuracy    <       0.00000003 Ry

     The total energy is the sum of the following terms:
     one-electron contribution =    -238.86005904 Ry
     hartree contribution      =     139.70680731 Ry
     xc contribution           =     -67.35426384 Ry
     ewald contribution        =    -109.49697672 Ry

     convergence has been achieved in  14 iterations

     Forces acting on atoms (cartesian axes, Ry/au):

     atom    1 type  2   force =     0.00000000   -0.02039138    0.00738699
     atom    2 type  2   force =     0.00000000    0.02039123    0.00738703
     atom    3 type  2   force =     0.00000000   -0.02039140    0.00738698
     atom    4 type  2   force =     0.00000000    0.02039133    0.00738707
     atom    5 type  2   force =     0.00000000   -0.01751012    0.02339196
     atom    6 type  2   force =     0.00000000    0.01751000    0.02339201
     atom    7 type  2   force =     0.00000000   -0.01751011    0.02339203
     atom    8 type  2   force =     0.00000000    0.01751014    0.02339210
     atom    9 type  1   force =     0.00000000   -0.00251000   -0.01834238
     atom   10 type  1   force =     0.00000000    0.00251001   -0.01834234
     atom   11 type  1   force =     0.00000000   -0.00250999   -0.01834242
     atom   12 type  1   force =     0.00000000    0.00251002   -0.01834235
     atom   13 type  1   force =     0.00000000    0.02821974    0.00919703
     atom   14 type  1   force =     0.00000000   -0.02821968    0.00919703
     atom   15 type  1   force =     0.00000000    0.02821983    0.00919705
     atom   16 type  1   force =     0.00000000   -0.02821972    0.00919705
     atom   17 type  1   force =    -0.02842446    0.00652351   -0.01081685
     atom   18 type  1   force =     0.02842441   -0.00652349   -0.01081684
     atom   19 type  1   force =    -0.02842441   -0.00652349   -0.01081684
     atom   20 type  1   force =     0.02842446    0.00652351   -0.01081685
     atom   21 type  1   force =    -0.02842439    0.00652351   -0.01081687
     atom   22 type  1   force =     0.02842436   -0.00652349   -0.01081686
     atom   23 type  1   force =    -0.02842436   -0.00652349   -0.01081686
     atom   24 type  1   force =     0.02842439    0.00652351   -0.01081687

     Total force =     0.133908     Total SCF correction =     0.000118


     Computing stress (Cartesian axis) and pressure

          total   stress  (Ry/bohr**3)                   (kbar)     P=      -41.51
  -0.00033419   0.00000000   0.00000000          -49.16        0.00        0.00
   0.00000000  -0.00028345  -0.00000000            0.00      -41.70       -0.00
   0.00000000  -0.00000000  -0.00022885            0.00       -0.00      -33.66


     Writing all to output data dir ./iceIh/iceIh.save/ :
     XML data file, charge density, pseudopotentials, collected wavefunctions

     init_run     :      4.85s CPU      4.99s WALL (       1 calls)
     electrons    :    145.24s CPU    147.31s WALL (       1 calls)
     forces       :      0.61s CPU      0.62s WALL (       1 calls)
     stress       :      9.20s CPU      9.23s WALL (       1 calls)

     Called by init_run:
     wfcinit      :      4.26s CPU      4.35s WALL (       1 calls)
     potinit      :      0.02s CPU      0.04s WALL (       1 calls)
     hinit0       :      0.48s CPU      0.48s WALL (       1 calls)

     Called by electrons:
     c_bands      :    128.74s CPU    130.55s WALL (      14 calls)
     sum_band     :     16.23s CPU     16.40s WALL (      14 calls)
     v_of_rho     :      0.17s CPU      0.18s WALL (      15 calls)
     newd         :      0.03s CPU      0.04s WALL (      15 calls)
     mix_rho      :      0.04s CPU      0.04s WALL (      14 calls)

     Called by c_bands:
     init_us_2    :      2.14s CPU      2.20s WALL (    3565 calls)
     cegterg      :    124.30s CPU    125.35s WALL (    1610 calls)

     Called by *egterg:
     cdiaghg      :      9.93s CPU      9.96s WALL (    5768 calls)
     h_psi        :     97.57s CPU     98.60s WALL (    5883 calls)
     s_psi        :      4.00s CPU      4.02s WALL (    5883 calls)
     g_psi        :      0.35s CPU      0.35s WALL (    4158 calls)

     Called by h_psi:
     h_psi:calbec :      6.53s CPU      6.59s WALL (    5883 calls)
     vloc_psi     :     86.00s CPU     86.91s WALL (    5883 calls)
     add_vuspsi   :      4.19s CPU      4.23s WALL (    5883 calls)

     General routines
     calbec       :      8.46s CPU      8.55s WALL (    8068 calls)
     fft          :      0.55s CPU      0.56s WALL (     173 calls)
     ffts         :      0.01s CPU      0.01s WALL (      14 calls)
     fftw         :     89.74s CPU     90.66s WALL (  371382 calls)

     Parallel routines

     PWSCF        :   2m42.43s CPU   2m49.83s WALL


   This run was terminated on:  20:52:20  24Mar2026            

=------------------------------------------------------------------------------=
   JOB DONE.
=------------------------------------------------------------------------------=
