
     Program PWSCF v.7.3.1 starts on  1Apr2026 at 14:32: 2 

     This program is part of the open-source Quantum ESPRESSO suite
     for quantum simulation of materials; please cite
         "P. Giannozzi et al., J. Phys.:Condens. Matter 21 395502 (2009);
         "P. Giannozzi et al., J. Phys.:Condens. Matter 29 465901 (2017);
         "P. Giannozzi et al., J. Chem. Phys. 152 154105 (2020);
          URL http://www.quantum-espresso.org", 
     in publications or presentations arising from this work. More details at
     http://www.quantum-espresso.org/quote

     Parallel version (MPI), running on   128 processors

     MPI processes distributed on     1 nodes
     236525 MiB available memory on the printing compute node when the environment starts

     Waiting for input...
     Reading input from standard input

     Current dimensions of program PWSCF are:
     Max number of different atomic species (ntypx) = 10
     Max number of k-points (npk) =  40000
     Max angular momentum in pseudopotentials (lmaxx) =  4
     Found identity + ( -0.5000 -0.5000  0.0000) symmetry
     This is a supercell, fractional translations are disabled

     K-points division:     npool     =       4
     R & G space division:  proc/nbgrp/npool/nimage =      32
     Subspace diagonalization in iterative solution of the eigenvalue problem:
     a serial algorithm will be used


     Parallelization info
     --------------------
     sticks:   dense  smooth     PW     G-vecs:    dense   smooth      PW
     Min         115     115     32                 6541     6541     946
     Max         116     116     33                 6544     6544     949
     Sum        3695    3695   1025               209375   209375   30313

     Using Slab Decomposition



     bravais-lattice index     =            8
     lattice parameter (alat)  =       8.6352  a.u.
     unit-cell volume          =    1815.3853 (a.u.)^3
     number of atoms/cell      =           24
     number of atomic types    =            2
     number of electrons       =        64.00
     number of Kohn-Sham states=           32
     kinetic-energy cutoff     =      90.0000  Ry
     charge density cutoff     =     360.0000  Ry
     scf convergence threshold =      1.0E-07
     mixing beta               =       0.7000
     number of iterations used =            8  plain     mixing
     energy convergence thresh.=      1.0E-04
     force convergence thresh. =      1.0E-03
     Exchange-correlation=  SLA  PW   PBE  PBE
                           (   1   4   3   4   0   0   0)
     nstep                     =           50


     celldm(1)=   8.635160  celldm(2)=   1.732119  celldm(3)=   1.627721
     celldm(4)=   0.000000  celldm(5)=   0.000000  celldm(6)=   0.000000

     crystal axes: (cart. coord. in units of alat)
               a(1) = (   1.000000   0.000000   0.000000 )  
               a(2) = (   0.000000   1.732119   0.000000 )  
               a(3) = (   0.000000   0.000000   1.627721 )  

     reciprocal axes: (cart. coord. in units 2 pi/alat)
               b(1) = (  1.000000  0.000000  0.000000 )  
               b(2) = (  0.000000  0.577328  0.000000 )  
               b(3) = (  0.000000  0.000000  0.614356 )  


     PseudoPot. # 1 for H  read from file:
     ./H.pbe-van_ak.UPF
     MD5 check sum: 077eb6d537518a38cb46c6de387227b7
     Pseudo is Ultrasoft, Zval =  1.0
     Generated by new atomic code, or converted to UPF format
     Using radial grid of  615 points,  1 beta functions with: 
                l(1) =   0
     Q(r) pseudized with  8 coefficients,  rinner =    0.800

     PseudoPot. # 2 for O  read from file:
     ./O.pbe-van_ak.UPF
     MD5 check sum: 78c19812648e8988a0fe644b0f25305e
     Pseudo is Ultrasoft, Zval =  6.0
     Generated by new atomic code, or converted to UPF format
     Using radial grid of  737 points,  4 beta functions with: 
                l(1) =   0
                l(2) =   0
                l(3) =   1
                l(4) =   1
     Q(r) pseudized with  8 coefficients,  rinner =    0.800   0.800   0.800


     atomic species   valence    mass     pseudopotential
     H                 1.00     1.00800     H ( 1.00)
     O                 6.00    16.00000     O ( 1.00)

      2 Sym. Ops. (no inversion) found



   Cartesian axes

     site n.     atom                  positions (alat units)
         1        O      tau(   1) = (   0.0000000   1.1515127   0.1027092  )
         2        O      tau(   2) = (   0.0000000   0.5806063   0.9165697  )
         3        O      tau(   3) = (   0.5000000   0.2854532   0.1027092  )
         4        O      tau(   4) = (   0.5000000   1.4466659   0.9165697  )
         5        O      tau(   5) = (   0.5000000   1.4298643   1.5250118  )
         6        O      tau(   6) = (   0.5000000   0.3022548   0.7111513  )
         7        O      tau(   7) = (   0.0000000   0.5638048   1.5250118  )
         8        O      tau(   8) = (   0.0000000   1.1683143   0.7111513  )
         9        H      tau(   9) = (   0.0000000   1.1494343   0.3195216  )
        10        H      tau(  10) = (   0.0000000   0.5826848   1.1333822  )
        11        H      tau(  11) = (   0.5000000   0.2833747   0.3195216  )
        12        H      tau(  12) = (   0.5000000   1.4487443   1.1333822  )
        13        H      tau(  13) = (   0.0000000   0.9289355   0.0297873  )
        14        H      tau(  14) = (   0.0000000   0.8031836   0.8436478  )
        15        H      tau(  15) = (   0.5000000   0.0628759   0.0297873  )
        16        H      tau(  16) = (   0.5000000   1.6692431   0.8436478  )
        17        H      tau(  17) = (   0.6766000   1.3420459   1.5979337  )
        18        H      tau(  18) = (   0.3234000   0.3900732   0.7840732  )
        19        H      tau(  19) = (   0.6766000   0.3900732   0.7840732  )
        20        H      tau(  20) = (   0.3234000   1.3420459   1.5979337  )
        21        H      tau(  21) = (   0.1766000   0.4759863   1.5979337  )
        22        H      tau(  22) = (   0.8234000   1.2561327   0.7840732  )
        23        H      tau(  23) = (   0.1766000   1.2561327   0.7840732  )
        24        H      tau(  24) = (   0.8234000   0.4759863   1.5979337  )

     number of k points=   460

     Number of k-points >= 100: set verbosity='high' to print them.

     Dense  grid:   209375 G-vectors     FFT dimensions: (  54,  96,  90)

     Estimated max dynamical RAM per process >      54.75 MB

     Estimated total dynamical RAM >       6.69 GB

     Initial potential from superposition of free atoms

     starting charge      63.9998, renormalised to      64.0000
     Starting wfcs are   48 randomized atomic wfcs

     total cpu time spent up to now is        5.3 secs

     per-process dynamical memory:    63.1 Mb

     Self-consistent Calculation

     iteration #  1     ecut=    90.00 Ry     beta= 0.70
     Davidson diagonalization with overlap
     ethr =  1.00E-02,  avg # of iterations =  2.0

     total cpu time spent up to now is       15.1 secs

     total energy              =    -274.81124351 Ry
     estimated scf accuracy    <       2.75112572 Ry

     iteration #  2     ecut=    90.00 Ry     beta= 0.70
     Davidson diagonalization with overlap
     ethr =  4.30E-03,  avg # of iterations =  3.0

     total cpu time spent up to now is       27.8 secs

     total energy              =    -275.66365715 Ry
     estimated scf accuracy    <       1.75790924 Ry

     iteration #  3     ecut=    90.00 Ry     beta= 0.70
     Davidson diagonalization with overlap
     ethr =  2.75E-03,  avg # of iterations =  2.0

     negative rho (up, down):  2.455E-07 0.000E+00

     total cpu time spent up to now is       37.4 secs

     total energy              =    -275.90377993 Ry
     estimated scf accuracy    <       0.06731858 Ry

     iteration #  4     ecut=    90.00 Ry     beta= 0.70
     Davidson diagonalization with overlap
     ethr =  1.05E-04,  avg # of iterations =  4.0

     negative rho (up, down):  6.316E-07 0.000E+00

     total cpu time spent up to now is       51.8 secs

     total energy              =    -275.95663291 Ry
     estimated scf accuracy    <       0.08433530 Ry

     iteration #  5     ecut=    90.00 Ry     beta= 0.70
     Davidson diagonalization with overlap
     ethr =  1.05E-04,  avg # of iterations =  2.0

     negative rho (up, down):  1.023E-06 0.000E+00

     total cpu time spent up to now is       60.4 secs

     total energy              =    -275.95713052 Ry
     estimated scf accuracy    <       0.01213803 Ry

     iteration #  6     ecut=    90.00 Ry     beta= 0.70
     Davidson diagonalization with overlap
     ethr =  1.90E-05,  avg # of iterations =  2.0

     negative rho (up, down):  1.013E-06 0.000E+00

     total cpu time spent up to now is       70.8 secs

     total energy              =    -275.96111239 Ry
     estimated scf accuracy    <       0.00008345 Ry

     iteration #  7     ecut=    90.00 Ry     beta= 0.70
     Davidson diagonalization with overlap
     ethr =  1.30E-07,  avg # of iterations =  5.1

     negative rho (up, down):  9.463E-07 0.000E+00

     total cpu time spent up to now is       86.1 secs

     total energy              =    -275.96125869 Ry
     estimated scf accuracy    <       0.00087802 Ry

     iteration #  8     ecut=    90.00 Ry     beta= 0.70
     Davidson diagonalization with overlap
     ethr =  1.30E-07,  avg # of iterations =  2.0

     negative rho (up, down):  8.778E-07 0.000E+00

     total cpu time spent up to now is       95.0 secs

     total energy              =    -275.96099602 Ry
     estimated scf accuracy    <       0.00052501 Ry

     iteration #  9     ecut=    90.00 Ry     beta= 0.70
     Davidson diagonalization with overlap
     ethr =  1.30E-07,  avg # of iterations =  4.0

     negative rho (up, down):  8.791E-07 0.000E+00

     total cpu time spent up to now is      109.2 secs

     total energy              =    -275.96112683 Ry
     estimated scf accuracy    <       0.00000570 Ry

     iteration # 10     ecut=    90.00 Ry     beta= 0.70
     Davidson diagonalization with overlap
     ethr =  8.91E-09,  avg # of iterations =  2.5

     negative rho (up, down):  8.909E-07 0.000E+00

     total cpu time spent up to now is      119.0 secs

     total energy              =    -275.96112684 Ry
     estimated scf accuracy    <       0.00000269 Ry

     iteration # 11     ecut=    90.00 Ry     beta= 0.70
     Davidson diagonalization with overlap
     ethr =  4.21E-09,  avg # of iterations =  2.0

     negative rho (up, down):  8.937E-07 0.000E+00

     total cpu time spent up to now is      128.8 secs

     End of self-consistent calculation

     Number of k-points >= 100: set verbosity='high' to print the bands.

     highest occupied level (ev):    -3.5869

!    total energy              =    -275.96112719 Ry
     estimated scf accuracy    <       0.00000009 Ry

     The total energy is the sum of the following terms:
     one-electron contribution =    -243.29822124 Ry
     hartree contribution      =     141.69601967 Ry
     xc contribution           =     -67.67960725 Ry
     ewald contribution        =    -106.67931836 Ry

     convergence has been achieved in  11 iterations

     Forces acting on atoms (cartesian axes, Ry/au):

     atom    1 type  2   force =     0.00000000   -0.07067720   -0.04381893
     atom    2 type  2   force =     0.00000000    0.07067755   -0.04381977
     atom    3 type  2   force =     0.00000000   -0.07067761   -0.04382114
     atom    4 type  2   force =     0.00000000    0.07067658   -0.04381576
     atom    5 type  2   force =     0.00000000    0.08805075   -0.05628663
     atom    6 type  2   force =     0.00000000   -0.08804981   -0.05628743
     atom    7 type  2   force =     0.00000000    0.08805176   -0.05628833
     atom    8 type  2   force =     0.00000000   -0.08804892   -0.05628528
     atom    9 type  1   force =     0.00000000   -0.00442253    0.01038324
     atom   10 type  1   force =     0.00000000    0.00442193    0.01038138
     atom   11 type  1   force =     0.00000000   -0.00442263    0.01038274
     atom   12 type  1   force =     0.00000000    0.00442177    0.01038200
     atom   13 type  1   force =     0.00000000    0.07341214    0.02821068
     atom   14 type  1   force =     0.00000000   -0.07341120    0.02820998
     atom   15 type  1   force =     0.00000000    0.07341122    0.02821030
     atom   16 type  1   force =     0.00000000   -0.07341190    0.02821059
     atom   17 type  1   force =     0.04368933   -0.04269779    0.03075652
     atom   18 type  1   force =    -0.04368969    0.04269730    0.03075658
     atom   19 type  1   force =     0.04368969    0.04269730    0.03075658
     atom   20 type  1   force =    -0.04368933   -0.04269779    0.03075652
     atom   21 type  1   force =     0.04368900   -0.04269770    0.03075638
     atom   22 type  1   force =    -0.04368986    0.04269723    0.03075671
     atom   23 type  1   force =     0.04368986    0.04269723    0.03075671
     atom   24 type  1   force =    -0.04368900   -0.04269770    0.03075638

     Total force =     0.366085     Total SCF correction =     0.000138


     Computing stress (Cartesian axis) and pressure

          total   stress  (Ry/bohr**3)                   (kbar)     P=       -3.86
   0.00023082   0.00000000   0.00000000           33.95        0.00        0.00
   0.00000000  -0.00033358   0.00000001            0.00      -49.07        0.00
   0.00000000   0.00000001   0.00002397            0.00        0.00        3.53


     BFGS Geometry Optimization
     Energy error            =      0.0E+00 Ry
     Gradient error          =      8.8E-02 Ry/Bohr

     number of scf cycles    =   1
     number of bfgs steps    =   0

     energy             new  =    -275.9611271853 Ry

     new trust radius        =       0.1045059230 bohr
     new conv_thr            =       0.0000001000 Ry


ATOMIC_POSITIONS (crystal)
O                0.0000000000        0.6600746677        0.0599824673
O                0.0000000000        0.3399253557        0.5599823844
O                0.5000000000        0.1600746409        0.0599823098
O                0.5000000000        0.8399252907        0.5599826699
O                0.5000000000        0.8313868881        0.9328954592
O                0.5000000000        0.1686131751        0.4328953719
O                0.0000000000        0.3313869552        0.9328953382
O                0.0000000000        0.6686132346        0.4328955251
H                0.0000000000        0.6633043477        0.1970387246
H                0.0000000000        0.3366956125        0.6970386222
H                0.5000000000        0.1633043406        0.1970386889
H                0.5000000000        0.8366956016        0.6970386665
H                0.0000000000        0.5412081759        0.0203070740
H                0.0000000000        0.4587918869        0.5203070202
H                0.5000000000        0.0412081144        0.0203070471
H                0.5000000000        0.9587918400        0.5203070636
H                0.6816594487        0.7719453241        0.9838882019
H                0.3183405097        0.2280546436        0.4838882065
H                0.6816594903        0.2280546436        0.4838882065
H                0.3183405513        0.7719453241        0.9838882019
H                0.1816594105        0.2719453299        0.9838881923
H                0.8183404899        0.7280546387        0.4838882157
H                0.1816595101        0.7280546387        0.4838882157
H                0.8183405895        0.2719453299        0.9838881923



     Writing config-only to output data dir ./iceIh/iceIh.save/ :
     XML data file
     NEW-OLD atomic charge density approx. for the potential

     negative rho (up, down):  9.460E-07 0.000E+00

     total cpu time spent up to now is      139.0 secs

     per-process dynamical memory:    67.9 Mb

     Self-consistent Calculation

     iteration #  1     ecut=    90.00 Ry     beta= 0.70
     Davidson diagonalization with overlap
     ethr =  1.00E-06,  avg # of iterations = 10.0

     negative rho (up, down):  2.900E-07 0.000E+00

     total cpu time spent up to now is      166.9 secs

     total energy              =    -275.98937209 Ry
     estimated scf accuracy    <       0.03628547 Ry

     iteration #  2     ecut=    90.00 Ry     beta= 0.70
     Davidson diagonalization with overlap
     ethr =  5.67E-05,  avg # of iterations =  3.0

     negative rho (up, down):  3.108E-07 0.000E+00

     total cpu time spent up to now is      178.9 secs

     total energy              =    -275.99668877 Ry
     estimated scf accuracy    <       0.01892997 Ry

     iteration #  3     ecut=    90.00 Ry     beta= 0.70
     Davidson diagonalization with overlap
     ethr =  2.96E-05,  avg # of iterations =  2.9

     negative rho (up, down):  3.019E-07 0.000E+00

     total cpu time spent up to now is      189.2 secs

     total energy              =    -276.00100345 Ry
     estimated scf accuracy    <       0.00028038 Ry

     iteration #  4     ecut=    90.00 Ry     beta= 0.70
     Davidson diagonalization with overlap
     ethr =  4.38E-07,  avg # of iterations =  5.3

     negative rho (up, down):  2.839E-07 0.000E+00

     total cpu time spent up to now is      204.5 secs

     total energy              =    -276.00106213 Ry
     estimated scf accuracy    <       0.00055549 Ry

     iteration #  5     ecut=    90.00 Ry     beta= 0.70
     Davidson diagonalization with overlap
     ethr =  4.38E-07,  avg # of iterations =  3.4

     negative rho (up, down):  2.829E-07 0.000E+00

     total cpu time spent up to now is      216.8 secs

     total energy              =    -276.00122462 Ry
     estimated scf accuracy    <       0.00004061 Ry

     iteration #  6     ecut=    90.00 Ry     beta= 0.70
     Davidson diagonalization with overlap
     ethr =  6.35E-08,  avg # of iterations =  2.0

     negative rho (up, down):  2.831E-07 0.000E+00

     total cpu time spent up to now is      226.4 secs

     total energy              =    -276.00122199 Ry
     estimated scf accuracy    <       0.00002729 Ry

     iteration #  7     ecut=    90.00 Ry     beta= 0.70
     Davidson diagonalization with overlap
     ethr =  4.26E-08,  avg # of iterations =  2.0

     negative rho (up, down):  2.830E-07 0.000E+00

     total cpu time spent up to now is      234.5 secs

     total energy              =    -276.00122129 Ry
     estimated scf accuracy    <       0.00000582 Ry

     iteration #  8     ecut=    90.00 Ry     beta= 0.70
     Davidson diagonalization with overlap
     ethr =  9.09E-09,  avg # of iterations =  3.0

     negative rho (up, down):  2.829E-07 0.000E+00

     total cpu time spent up to now is      245.5 secs

     total energy              =    -276.00122381 Ry
     estimated scf accuracy    <       0.00000043 Ry

     iteration #  9     ecut=    90.00 Ry     beta= 0.70
     Davidson diagonalization with overlap
     ethr =  6.75E-10,  avg # of iterations =  2.0

     negative rho (up, down):  2.828E-07 0.000E+00

     total cpu time spent up to now is      254.3 secs

     total energy              =    -276.00122373 Ry
     estimated scf accuracy    <       0.00000035 Ry

     iteration # 10     ecut=    90.00 Ry     beta= 0.70
     Davidson diagonalization with overlap
     ethr =  5.46E-10,  avg # of iterations =  2.0

     negative rho (up, down):  2.825E-07 0.000E+00

     total cpu time spent up to now is      263.0 secs

     End of self-consistent calculation

     Number of k-points >= 100: set verbosity='high' to print the bands.

     highest occupied level (ev):    -3.6623

!    total energy              =    -276.00122372 Ry
     estimated scf accuracy    <       0.00000005 Ry

     The total energy is the sum of the following terms:
     one-electron contribution =    -240.84745727 Ry
     hartree contribution      =     140.57088801 Ry
     xc contribution           =     -67.43931274 Ry
     ewald contribution        =    -108.28534172 Ry

     convergence has been achieved in  10 iterations

     Forces acting on atoms (cartesian axes, Ry/au):

     atom    1 type  2   force =     0.00000000    0.03866078    0.02847665
     atom    2 type  2   force =     0.00000000   -0.03866048    0.02847623
     atom    3 type  2   force =     0.00000000    0.03866092    0.02847790
     atom    4 type  2   force =     0.00000000   -0.03865923    0.02847332
     atom    5 type  2   force =     0.00000000   -0.02291754    0.02406204
     atom    6 type  2   force =     0.00000000    0.02291714    0.02406198
     atom    7 type  2   force =     0.00000000   -0.02291813    0.02406251
     atom    8 type  2   force =     0.00000000    0.02291645    0.02406116
     atom    9 type  1   force =     0.00000000   -0.00652973   -0.02251182
     atom   10 type  1   force =     0.00000000    0.00652985   -0.02251144
     atom   11 type  1   force =     0.00000000   -0.00652968   -0.02251282
     atom   12 type  1   force =     0.00000000    0.00652989   -0.02250934
     atom   13 type  1   force =     0.00000000   -0.02283907   -0.00428835
     atom   14 type  1   force =     0.00000000    0.02283862   -0.00428813
     atom   15 type  1   force =     0.00000000   -0.02283913   -0.00428846
     atom   16 type  1   force =     0.00000000    0.02283755   -0.00428765
     atom   17 type  1   force =    -0.03196672    0.00702982   -0.01286921
     atom   18 type  1   force =     0.03196676   -0.00702969   -0.01286929
     atom   19 type  1   force =    -0.03196676   -0.00702969   -0.01286929
     atom   20 type  1   force =     0.03196672    0.00702982   -0.01286921
     atom   21 type  1   force =    -0.03196685    0.00703010   -0.01286956
     atom   22 type  1   force =     0.03196649   -0.00702933   -0.01286882
     atom   23 type  1   force =    -0.03196649   -0.00702933   -0.01286882
     atom   24 type  1   force =     0.03196685    0.00703010   -0.01286956

     Total force =     0.167008     Total SCF correction =     0.000200


     Computing stress (Cartesian axis) and pressure

          total   stress  (Ry/bohr**3)                   (kbar)     P=      -31.80
  -0.00035602   0.00000000   0.00000000          -52.37        0.00        0.00
   0.00000000  -0.00004774   0.00000000            0.00       -7.02        0.00
   0.00000000   0.00000000  -0.00024481            0.00        0.00      -36.01

     Energy error            =      4.0E-02 Ry
     Gradient error          =      3.9E-02 Ry/Bohr

     number of scf cycles    =   2
     number of bfgs steps    =   1

     energy             old  =    -275.9611271853 Ry
     energy             new  =    -276.0012237199 Ry

     CASE: energy            _new < energy            _old

     new trust radius        =       0.0323139806 bohr
     new conv_thr            =       0.0000000387 Ry


ATOMIC_POSITIONS (crystal)
O                0.0000000000        0.6618081356        0.0613545150
O                0.0000000000        0.3381919029        0.5613544095
O                0.5000000000        0.1618081145        0.0613544174
O                0.5000000000        0.8381918960        0.5613545540
O                0.5000000000        0.8304294327        0.9340236662
O                0.5000000000        0.1695706125        0.4340235743
O                0.0000000000        0.3304294736        0.9340235662
O                0.0000000000        0.6695706406        0.4340236894
H                0.0000000000        0.6629867141        0.1959148557
H                0.0000000000        0.3370132507        0.6959147693
H                0.5000000000        0.1629867095        0.1959147682
H                0.5000000000        0.8370132416        0.6959149210
H                0.0000000000        0.5402322177        0.0201353941
H                0.0000000000        0.4597678249        0.5201353502
H                0.5000000000        0.0402321517        0.0201353609
H                0.5000000000        0.9597677263        0.5201354189
H                0.6791379525        0.7722151830        0.9832858526
H                0.3208620081        0.2277847901        0.4832858535
H                0.6791379919        0.2277847901        0.4832858535
H                0.3208620475        0.7722151830        0.9832858526
H                0.1791379031        0.2722152021        0.9832858253
H                0.8208619654        0.7277848023        0.4832858865
H                0.1791380346        0.7277848023        0.4832858865
H                0.8208620969        0.2722152021        0.9832858253



     Writing config-only to output data dir ./iceIh/iceIh.save/ :
     XML data file
     NEW-OLD atomic charge density approx. for the potential

     negative rho (up, down):  2.866E-07 0.000E+00

     total cpu time spent up to now is      273.2 secs

     per-process dynamical memory:    69.7 Mb

     Self-consistent Calculation

     iteration #  1     ecut=    90.00 Ry     beta= 0.70
     Davidson diagonalization with overlap
     ethr =  1.00E-06,  avg # of iterations =  6.9

     negative rho (up, down):  6.190E-07 0.000E+00

     total cpu time spent up to now is      293.4 secs

     total energy              =    -276.01042222 Ry
     estimated scf accuracy    <       0.00299753 Ry

     iteration #  2     ecut=    90.00 Ry     beta= 0.70
     Davidson diagonalization with overlap
     ethr =  4.68E-06,  avg # of iterations =  3.0

     negative rho (up, down):  6.646E-07 0.000E+00

     total cpu time spent up to now is      305.0 secs

     total energy              =    -276.01107385 Ry
     estimated scf accuracy    <       0.00098113 Ry

     iteration #  3     ecut=    90.00 Ry     beta= 0.70
     Davidson diagonalization with overlap
     ethr =  1.53E-06,  avg # of iterations =  3.0

     negative rho (up, down):  7.063E-07 0.000E+00

     total cpu time spent up to now is      315.7 secs

     total energy              =    -276.01129765 Ry
     estimated scf accuracy    <       0.00003216 Ry

     iteration #  4     ecut=    90.00 Ry     beta= 0.70
     Davidson diagonalization with overlap
     ethr =  5.03E-08,  avg # of iterations =  3.2

     negative rho (up, down):  7.246E-07 0.000E+00

     total cpu time spent up to now is      326.8 secs

     total energy              =    -276.01130412 Ry
     estimated scf accuracy    <       0.00000685 Ry

     iteration #  5     ecut=    90.00 Ry     beta= 0.70
     Davidson diagonalization with overlap
     ethr =  1.07E-08,  avg # of iterations =  3.2

     negative rho (up, down):  7.296E-07 0.000E+00

     total cpu time spent up to now is      338.0 secs

     total energy              =    -276.01130613 Ry
     estimated scf accuracy    <       0.00000034 Ry

     iteration #  6     ecut=    90.00 Ry     beta= 0.70
     Davidson diagonalization with overlap
     ethr =  5.37E-10,  avg # of iterations =  2.9

     negative rho (up, down):  7.301E-07 0.000E+00

     total cpu time spent up to now is      348.6 secs

     total energy              =    -276.01130615 Ry
     estimated scf accuracy    <       0.00000015 Ry

     iteration #  7     ecut=    90.00 Ry     beta= 0.70
     Davidson diagonalization with overlap
     ethr =  2.30E-10,  avg # of iterations =  3.0

     negative rho (up, down):  7.303E-07 0.000E+00

     total cpu time spent up to now is      359.9 secs

     End of self-consistent calculation

     Number of k-points >= 100: set verbosity='high' to print the bands.

     highest occupied level (ev):    -3.6759

!    total energy              =    -276.01130619 Ry
     estimated scf accuracy    <       0.00000001 Ry

     The total energy is the sum of the following terms:
     one-electron contribution =    -241.75725074 Ry
     hartree contribution      =     140.98587188 Ry
     xc contribution           =     -67.52851559 Ry
     ewald contribution        =    -107.71141174 Ry

     convergence has been achieved in   7 iterations

     Forces acting on atoms (cartesian axes, Ry/au):

     atom    1 type  2   force =     0.00000000   -0.00194977   -0.00742393
     atom    2 type  2   force =     0.00000000    0.00194953   -0.00742361
     atom    3 type  2   force =     0.00000000   -0.00195003   -0.00742382
     atom    4 type  2   force =     0.00000000    0.00194883   -0.00742351
     atom    5 type  2   force =     0.00000000    0.00122529    0.00751383
     atom    6 type  2   force =     0.00000000   -0.00122528    0.00751405
     atom    7 type  2   force =     0.00000000    0.00122507    0.00751412
     atom    8 type  2   force =     0.00000000   -0.00122554    0.00751373
     atom    9 type  1   force =     0.00000000   -0.00427448   -0.00011714
     atom   10 type  1   force =     0.00000000    0.00427458   -0.00011736
     atom   11 type  1   force =     0.00000000   -0.00427445   -0.00011722
     atom   12 type  1   force =     0.00000000    0.00427465   -0.00011743
     atom   13 type  1   force =     0.00000000    0.01126191    0.00607400
     atom   14 type  1   force =     0.00000000   -0.01126179    0.00607398
     atom   15 type  1   force =     0.00000000    0.01126218    0.00607403
     atom   16 type  1   force =     0.00000000   -0.01126114    0.00607388
     atom   17 type  1   force =    -0.01371585   -0.00285361   -0.00302338
     atom   18 type  1   force =     0.01371608    0.00285360   -0.00302353
     atom   19 type  1   force =    -0.01371608    0.00285360   -0.00302353
     atom   20 type  1   force =     0.01371585   -0.00285361   -0.00302338
     atom   21 type  1   force =    -0.01371584   -0.00285350   -0.00302354
     atom   22 type  1   force =     0.01371605    0.00285373   -0.00302335
     atom   23 type  1   force =    -0.01371605    0.00285373   -0.00302335
     atom   24 type  1   force =     0.01371584   -0.00285350   -0.00302354

     Total force =     0.053280     Total SCF correction =     0.000076


     Computing stress (Cartesian axis) and pressure

          total   stress  (Ry/bohr**3)                   (kbar)     P=      -22.98
  -0.00020909   0.00000000   0.00000000          -30.76        0.00        0.00
   0.00000000  -0.00015474  -0.00000000            0.00      -22.76       -0.00
   0.00000000  -0.00000000  -0.00010477            0.00       -0.00      -15.41

     Energy error            =      1.0E-02 Ry
     Gradient error          =      1.4E-02 Ry/Bohr

     number of scf cycles    =   3
     number of bfgs steps    =   2

     energy             old  =    -276.0012237199 Ry
     energy             new  =    -276.0113061861 Ry

     CASE: energy            _new < energy            _old

     new trust radius        =       0.0189053632 bohr
     new conv_thr            =       0.0000000137 Ry


ATOMIC_POSITIONS (crystal)
O                0.0000000000        0.6619083212        0.0609791766
O                0.0000000000        0.3380917030        0.5609790915
O                0.5000000000        0.1619082819        0.0609790957
O                0.5000000000        0.8380916542        0.5609792229
O                0.5000000000        0.8304255942        0.9347512070
O                0.5000000000        0.1695744491        0.4347511311
O                0.0000000000        0.3304256153        0.9347511317
O                0.0000000000        0.6695744534        0.4347512168
H                0.0000000000        0.6626170332        0.1957200094
H                0.0000000000        0.3373829388        0.6957199066
H                0.5000000000        0.1626170316        0.1957199062
H                0.5000000000        0.8373829350        0.6957200724
H                0.0000000000        0.5409430344        0.0206006791
H                0.0000000000        0.4590570145        0.5206006341
H                0.5000000000        0.0409429864        0.0206006461
H                0.5000000000        0.9590569532        0.5206007001
H                0.6770353797        0.7720189736        0.9829745333
H                0.3229646093        0.2279809992        0.4829745219
H                0.6770353907        0.2279809992        0.4829745219
H                0.3229646203        0.7720189736        0.9829745333
H                0.1770353285        0.2720190037        0.9829744907
H                0.8229645591        0.7279810238        0.4829745734
H                0.1770354409        0.7279810238        0.4829745734
H                0.8229646715        0.2720190037        0.9829744907



     Writing config-only to output data dir ./iceIh/iceIh.save/ :
     XML data file
     NEW-OLD atomic charge density approx. for the potential

     negative rho (up, down):  7.553E-07 0.000E+00

     total cpu time spent up to now is      370.2 secs

     per-process dynamical memory:    69.7 Mb

     Self-consistent Calculation

     iteration #  1     ecut=    90.00 Ry     beta= 0.70
     Davidson diagonalization with overlap
     ethr =  1.00E-06,  avg # of iterations =  4.0

     negative rho (up, down):  8.290E-07 0.000E+00

     total cpu time spent up to now is      385.2 secs

     total energy              =    -276.01317728 Ry
     estimated scf accuracy    <       0.00046173 Ry

     iteration #  2     ecut=    90.00 Ry     beta= 0.70
     Davidson diagonalization with overlap
     ethr =  7.21E-07,  avg # of iterations =  3.0

     negative rho (up, down):  8.310E-07 0.000E+00

     total cpu time spent up to now is      396.9 secs

     total energy              =    -276.01327735 Ry
     estimated scf accuracy    <       0.00016020 Ry

     iteration #  3     ecut=    90.00 Ry     beta= 0.70
     Davidson diagonalization with overlap
     ethr =  2.50E-07,  avg # of iterations =  3.0

     negative rho (up, down):  8.371E-07 0.000E+00

     total cpu time spent up to now is      407.1 secs

     total energy              =    -276.01331274 Ry
     estimated scf accuracy    <       0.00000441 Ry

     iteration #  4     ecut=    90.00 Ry     beta= 0.70
     Davidson diagonalization with overlap
     ethr =  6.90E-09,  avg # of iterations =  3.0

     negative rho (up, down):  8.397E-07 0.000E+00

     total cpu time spent up to now is      418.9 secs

     total energy              =    -276.01331401 Ry
     estimated scf accuracy    <       0.00000183 Ry

     iteration #  5     ecut=    90.00 Ry     beta= 0.70
     Davidson diagonalization with overlap
     ethr =  2.86E-09,  avg # of iterations =  2.0

     negative rho (up, down):  8.410E-07 0.000E+00

     total cpu time spent up to now is      428.3 secs

     total energy              =    -276.01331422 Ry
     estimated scf accuracy    <       0.00000018 Ry

     iteration #  6     ecut=    90.00 Ry     beta= 0.70
     Davidson diagonalization with overlap
     ethr =  2.81E-10,  avg # of iterations =  3.9

     negative rho (up, down):  8.408E-07 0.000E+00

     total cpu time spent up to now is      440.7 secs

     total energy              =    -276.01331428 Ry
     estimated scf accuracy    <       0.00000009 Ry

     iteration #  7     ecut=    90.00 Ry     beta= 0.70
     Davidson diagonalization with overlap
     ethr =  1.34E-10,  avg # of iterations =  2.4

     negative rho (up, down):  8.407E-07 0.000E+00

     total cpu time spent up to now is      450.8 secs

     End of self-consistent calculation

     Number of k-points >= 100: set verbosity='high' to print the bands.

     highest occupied level (ev):    -3.6890

!    total energy              =    -276.01331430 Ry
     estimated scf accuracy    <          4.0E-10 Ry

     The total energy is the sum of the following terms:
     one-electron contribution =    -242.52027684 Ry
     hartree contribution      =     141.33082459 Ry
     xc contribution           =     -67.60217308 Ry
     ewald contribution        =    -107.22168896 Ry

     convergence has been achieved in   7 iterations

     Forces acting on atoms (cartesian axes, Ry/au):

     atom    1 type  2   force =     0.00000000    0.00388941   -0.00041547
     atom    2 type  2   force =     0.00000000   -0.00388936   -0.00041562
     atom    3 type  2   force =     0.00000000    0.00388951   -0.00041561
     atom    4 type  2   force =     0.00000000   -0.00388921   -0.00041545
     atom    5 type  2   force =     0.00000000    0.01137344   -0.00231233
     atom    6 type  2   force =     0.00000000   -0.01137369   -0.00231229
     atom    7 type  2   force =     0.00000000    0.01137359   -0.00231234
     atom    8 type  2   force =     0.00000000   -0.01137346   -0.00231225
     atom    9 type  1   force =     0.00000000   -0.00307279   -0.00285193
     atom   10 type  1   force =     0.00000000    0.00307286   -0.00285180
     atom   11 type  1   force =     0.00000000   -0.00307280   -0.00285173
     atom   12 type  1   force =     0.00000000    0.00307286   -0.00285209
     atom   13 type  1   force =     0.00000000    0.00379737    0.00276526
     atom   14 type  1   force =     0.00000000   -0.00379748    0.00276530
     atom   15 type  1   force =     0.00000000    0.00379732    0.00276523
     atom   16 type  1   force =     0.00000000   -0.00379758    0.00276536
     atom   17 type  1   force =    -0.00163139   -0.00769481    0.00140723
     atom   18 type  1   force =     0.00163139    0.00769489    0.00140721
     atom   19 type  1   force =    -0.00163139    0.00769489    0.00140721
     atom   20 type  1   force =     0.00163139   -0.00769481    0.00140723
     atom   21 type  1   force =    -0.00163120   -0.00769487    0.00140724
     atom   22 type  1   force =     0.00163161    0.00769479    0.00140719
     atom   23 type  1   force =    -0.00163161    0.00769479    0.00140719
     atom   24 type  1   force =     0.00163120   -0.00769487    0.00140724

     Total force =     0.035629     Total SCF correction =     0.000044


     Computing stress (Cartesian axis) and pressure

          total   stress  (Ry/bohr**3)                   (kbar)     P=      -15.05
  -0.00011763   0.00000000   0.00000000          -17.30        0.00        0.00
   0.00000000  -0.00009118   0.00000000            0.00      -13.41        0.00
   0.00000000   0.00000000  -0.00009817            0.00        0.00      -14.44

     Energy error            =      2.0E-03 Ry
     Gradient error          =      1.1E-02 Ry/Bohr

     number of scf cycles    =   4
     number of bfgs steps    =   3

     energy             old  =    -276.0113061861 Ry
     energy             new  =    -276.0133142992 Ry

     CASE: energy            _new < energy            _old

     new trust radius        =       0.0170833517 bohr
     new conv_thr            =       0.0000000114 Ry


ATOMIC_POSITIONS (crystal)
O                0.0000000000        0.6624206629        0.0608770793
O                0.0000000000        0.3375793605        0.5608769878
O                0.5000000000        0.1624206230        0.0608769993
O                0.5000000000        0.8375793094        0.5608771148
O                0.5000000000        0.8313272312        0.9349886090
O                0.5000000000        0.1686727893        0.4349885426
O                0.0000000000        0.3313272527        0.9349885452
O                0.0000000000        0.6686727980        0.4349886145
H                0.0000000000        0.6621389986        0.1952505010
H                0.0000000000        0.3378609827        0.6952504022
H                0.5000000000        0.1621389978        0.1952504009
H                0.5000000000        0.8378609810        0.6952505623
H                0.0000000000        0.5415584547        0.0210803132
H                0.0000000000        0.4584415869        0.5210802718
H                0.5000000000        0.0415584100        0.0210802766
H                0.5000000000        0.9584415291        0.5210803451
H                0.6755303516        0.7712808532        0.9829018200
H                0.3244696515        0.2287191270        0.4829017999
H                0.6755303485        0.2287191270        0.4829017999
H                0.3244696484        0.7712808532        0.9829018200
H                0.1755303248        0.2712808848        0.9829017682
H                0.8244696268        0.7287191511        0.4829018620
H                0.1755303732        0.7287191511        0.4829018620
H                0.8244696752        0.2712808848        0.9829017682



     Writing config-only to output data dir ./iceIh/iceIh.save/ :
     XML data file
     NEW-OLD atomic charge density approx. for the potential

     negative rho (up, down):  8.758E-07 0.000E+00

     total cpu time spent up to now is      461.0 secs

     per-process dynamical memory:    69.7 Mb

     Self-consistent Calculation

     iteration #  1     ecut=    90.00 Ry     beta= 0.70
     Davidson diagonalization with overlap
     ethr =  1.00E-06,  avg # of iterations =  4.0

     negative rho (up, down):  8.834E-07 0.000E+00

     total cpu time spent up to now is      476.0 secs

     total energy              =    -276.01468710 Ry
     estimated scf accuracy    <       0.00012692 Ry

     iteration #  2     ecut=    90.00 Ry     beta= 0.70
     Davidson diagonalization with overlap
     ethr =  1.98E-07,  avg # of iterations =  2.0

     negative rho (up, down):  8.853E-07 0.000E+00

     total cpu time spent up to now is      485.3 secs

     total energy              =    -276.01470428 Ry
     estimated scf accuracy    <       0.00001401 Ry

     iteration #  3     ecut=    90.00 Ry     beta= 0.70
     Davidson diagonalization with overlap
     ethr =  2.19E-08,  avg # of iterations =  3.0

     negative rho (up, down):  8.850E-07 0.000E+00

     total cpu time spent up to now is      496.5 secs

     total energy              =    -276.01470748 Ry
     estimated scf accuracy    <       0.00000554 Ry

     iteration #  4     ecut=    90.00 Ry     beta= 0.70
     Davidson diagonalization with overlap
     ethr =  8.65E-09,  avg # of iterations =  2.0

     negative rho (up, down):  8.847E-07 0.000E+00

     total cpu time spent up to now is      505.7 secs

     total energy              =    -276.01470829 Ry
     estimated scf accuracy    <       0.00000014 Ry

     iteration #  5     ecut=    90.00 Ry     beta= 0.70
     Davidson diagonalization with overlap
     ethr =  2.19E-10,  avg # of iterations =  5.9

     negative rho (up, down):  8.847E-07 0.000E+00

     total cpu time spent up to now is      521.9 secs

     total energy              =    -276.01470837 Ry
     estimated scf accuracy    <       0.00000040 Ry

     iteration #  6     ecut=    90.00 Ry     beta= 0.70
     Davidson diagonalization with overlap
     ethr =  2.19E-10,  avg # of iterations =  3.0

     negative rho (up, down):  8.848E-07 0.000E+00

     total cpu time spent up to now is      533.6 secs

     total energy              =    -276.01470842 Ry
     estimated scf accuracy    <       0.00000001 Ry

     iteration #  7     ecut=    90.00 Ry     beta= 0.70
     Davidson diagonalization with overlap
     ethr =  2.25E-11,  avg # of iterations =  3.2

     negative rho (up, down):  8.848E-07 0.000E+00

     total cpu time spent up to now is      546.3 secs

     End of self-consistent calculation

     Number of k-points >= 100: set verbosity='high' to print the bands.

     highest occupied level (ev):    -3.7051

!    total energy              =    -276.01470843 Ry
     estimated scf accuracy    <          1.2E-09 Ry

     The total energy is the sum of the following terms:
     one-electron contribution =    -242.71738411 Ry
     hartree contribution      =     141.41620702 Ry
     xc contribution           =     -67.61987718 Ry
     ewald contribution        =    -107.09365416 Ry

     convergence has been achieved in   7 iterations

     Forces acting on atoms (cartesian axes, Ry/au):

     atom    1 type  2   force =     0.00000000    0.00404192   -0.00194309
     atom    2 type  2   force =     0.00000000   -0.00404194   -0.00194308
     atom    3 type  2   force =     0.00000000    0.00404206   -0.00194322
     atom    4 type  2   force =     0.00000000   -0.00404174   -0.00194288
     atom    5 type  2   force =     0.00000000    0.00709162   -0.00036270
     atom    6 type  2   force =     0.00000000   -0.00709179   -0.00036265
     atom    7 type  2   force =     0.00000000    0.00709177   -0.00036274
     atom    8 type  2   force =     0.00000000   -0.00709158   -0.00036260
     atom    9 type  1   force =     0.00000000   -0.00111151    0.00108684
     atom   10 type  1   force =     0.00000000    0.00111156    0.00108688
     atom   11 type  1   force =     0.00000000   -0.00111153    0.00108702
     atom   12 type  1   force =     0.00000000    0.00111153    0.00108658
     atom   13 type  1   force =     0.00000000    0.00096402    0.00032362
     atom   14 type  1   force =     0.00000000   -0.00096404    0.00032362
     atom   15 type  1   force =     0.00000000    0.00096394    0.00032359
     atom   16 type  1   force =     0.00000000   -0.00096416    0.00032366
     atom   17 type  1   force =     0.00139006   -0.00512589    0.00044766
     atom   18 type  1   force =    -0.00139008    0.00512594    0.00044763
     atom   19 type  1   force =     0.00139008    0.00512594    0.00044763
     atom   20 type  1   force =    -0.00139006   -0.00512589    0.00044766
     atom   21 type  1   force =     0.00139018   -0.00512596    0.00044768
     atom   22 type  1   force =    -0.00138994    0.00512585    0.00044761
     atom   23 type  1   force =     0.00138994    0.00512585    0.00044761
     atom   24 type  1   force =    -0.00139018   -0.00512596    0.00044768

     Total force =     0.022874     Total SCF correction =     0.000051


     Computing stress (Cartesian axis) and pressure

          total   stress  (Ry/bohr**3)                   (kbar)     P=      -12.64
  -0.00009883   0.00000000   0.00000000          -14.54        0.00        0.00
   0.00000000  -0.00008070   0.00000000            0.00      -11.87        0.00
   0.00000000   0.00000000  -0.00007832            0.00        0.00      -11.52

     Energy error            =      1.4E-03 Ry
     Gradient error          =      7.1E-03 Ry/Bohr

     number of scf cycles    =   5
     number of bfgs steps    =   4

     energy             old  =    -276.0133142992 Ry
     energy             new  =    -276.0147084308 Ry

     CASE: energy            _new < energy            _old

     new trust radius        =       0.0161396985 bohr
     new conv_thr            =       0.0000000071 Ry


ATOMIC_POSITIONS (crystal)
O                0.0000000000        0.6631748012        0.0605440723
O                0.0000000000        0.3368252153        0.5605439861
O                0.5000000000        0.1631747711        0.0605439857
O                0.5000000000        0.8368251752        0.5605441228
O                0.5000000000        0.8323525469        0.9353463913
O                0.5000000000        0.1676474463        0.4353463389
O                0.0000000000        0.3323525775        0.9353463352
O                0.0000000000        0.6676474695        0.4353464002
H                0.0000000000        0.6617231200        0.1951235104
H                0.0000000000        0.3382768714        0.6951234118
H                0.5000000000        0.1617231186        0.1951234248
H                0.5000000000        0.8382768690        0.6951235465
H                0.0000000000        0.5420485101        0.0214129990
H                0.0000000000        0.4579515285        0.5214129577
H                0.5000000000        0.0420484631        0.0214129573
H                0.5000000000        0.9579514669        0.5214130394
H                0.6744862560        0.7704171228        0.9827865858
H                0.3255137573        0.2295828658        0.4827865548
H                0.6744862427        0.2295828658        0.4827865548
H                0.3255137440        0.7704171228        0.9827865858
H                0.1744862575        0.2704171514        0.9827865272
H                0.8255137617        0.7295828847        0.4827866254
H                0.1744862383        0.7295828847        0.4827866254
H                0.8255137425        0.2704171514        0.9827865272



     Writing config-only to output data dir ./iceIh/iceIh.save/ :
     XML data file
     NEW-OLD atomic charge density approx. for the potential

     negative rho (up, down):  9.137E-07 0.000E+00

     total cpu time spent up to now is      556.5 secs

     per-process dynamical memory:    69.7 Mb

     Self-consistent Calculation

     iteration #  1     ecut=    90.00 Ry     beta= 0.70
     Davidson diagonalization with overlap
     ethr =  1.00E-06,  avg # of iterations =  4.0

     negative rho (up, down):  8.858E-07 0.000E+00

     total cpu time spent up to now is      572.1 secs

     total energy              =    -276.01524822 Ry
     estimated scf accuracy    <       0.00022461 Ry

     iteration #  2     ecut=    90.00 Ry     beta= 0.70
     Davidson diagonalization with overlap
     ethr =  3.51E-07,  avg # of iterations =  2.0

     negative rho (up, down):  8.844E-07 0.000E+00

     total cpu time spent up to now is      582.4 secs

     total energy              =    -276.01528735 Ry
     estimated scf accuracy    <       0.00003325 Ry

     iteration #  3     ecut=    90.00 Ry     beta= 0.70
     Davidson diagonalization with overlap
     ethr =  5.20E-08,  avg # of iterations =  2.0

     negative rho (up, down):  8.816E-07 0.000E+00

     total cpu time spent up to now is      592.5 secs

     total energy              =    -276.01529485 Ry
     estimated scf accuracy    <       0.00000209 Ry

     iteration #  4     ecut=    90.00 Ry     beta= 0.70
     Davidson diagonalization with overlap
     ethr =  3.27E-09,  avg # of iterations =  2.0

     negative rho (up, down):  8.804E-07 0.000E+00

     total cpu time spent up to now is      601.3 secs

     total energy              =    -276.01529499 Ry
     estimated scf accuracy    <       0.00000027 Ry

     iteration #  5     ecut=    90.00 Ry     beta= 0.70
     Davidson diagonalization with overlap
     ethr =  4.27E-10,  avg # of iterations =  2.6

     negative rho (up, down):  8.806E-07 0.000E+00

     total cpu time spent up to now is      612.4 secs

     total energy              =    -276.01529508 Ry
     estimated scf accuracy    <       0.00000004 Ry

     iteration #  6     ecut=    90.00 Ry     beta= 0.70
     Davidson diagonalization with overlap
     ethr =  5.93E-11,  avg # of iterations =  2.2

     negative rho (up, down):  8.807E-07 0.000E+00

     total cpu time spent up to now is      622.3 secs

     End of self-consistent calculation

     Number of k-points >= 100: set verbosity='high' to print the bands.

     highest occupied level (ev):    -3.7107

!    total energy              =    -276.01529508 Ry
     estimated scf accuracy    <          1.8E-09 Ry

     The total energy is the sum of the following terms:
     one-electron contribution =    -242.55289243 Ry
     hartree contribution      =     141.33694517 Ry
     xc contribution           =     -67.60241647 Ry
     ewald contribution        =    -107.19693136 Ry

     convergence has been achieved in   6 iterations

     Forces acting on atoms (cartesian axes, Ry/au):

     atom    1 type  2   force =     0.00000000    0.00069645    0.00177655
     atom    2 type  2   force =     0.00000000   -0.00069637    0.00177645
     atom    3 type  2   force =     0.00000000    0.00069645    0.00177660
     atom    4 type  2   force =     0.00000000   -0.00069634    0.00177633
     atom    5 type  2   force =     0.00000000   -0.00016389    0.00309639
     atom    6 type  2   force =     0.00000000    0.00016384    0.00309642
     atom    7 type  2   force =     0.00000000   -0.00016387    0.00309640
     atom    8 type  2   force =     0.00000000    0.00016387    0.00309640
     atom    9 type  1   force =     0.00000000    0.00109892   -0.00080646
     atom   10 type  1   force =     0.00000000   -0.00109890   -0.00080632
     atom   11 type  1   force =     0.00000000    0.00109891   -0.00080647
     atom   12 type  1   force =     0.00000000   -0.00109892   -0.00080627
     atom   13 type  1   force =     0.00000000    0.00132198   -0.00132003
     atom   14 type  1   force =     0.00000000   -0.00132208   -0.00132003
     atom   15 type  1   force =     0.00000000    0.00132203   -0.00132004
     atom   16 type  1   force =     0.00000000   -0.00132204   -0.00132002
     atom   17 type  1   force =     0.00179034   -0.00104363   -0.00137322
     atom   18 type  1   force =    -0.00179036    0.00104363   -0.00137326
     atom   19 type  1   force =     0.00179036    0.00104363   -0.00137326
     atom   20 type  1   force =    -0.00179034   -0.00104363   -0.00137322
     atom   21 type  1   force =     0.00179031   -0.00104364   -0.00137324
     atom   22 type  1   force =    -0.00179039    0.00104362   -0.00137324
     atom   23 type  1   force =     0.00179039    0.00104362   -0.00137324
     atom   24 type  1   force =    -0.00179031   -0.00104364   -0.00137324

     Total force =     0.011129     Total SCF correction =     0.000070


     Computing stress (Cartesian axis) and pressure

          total   stress  (Ry/bohr**3)                   (kbar)     P=      -13.94
  -0.00009960   0.00000000   0.00000000          -14.65        0.00        0.00
   0.00000000  -0.00009260   0.00000000            0.00      -13.62        0.00
   0.00000000   0.00000000  -0.00009212            0.00        0.00      -13.55

     Energy error            =      5.9E-04 Ry
     Gradient error          =      3.1E-03 Ry/Bohr

     number of scf cycles    =   6
     number of bfgs steps    =   5

     energy             old  =    -276.0147084308 Ry
     energy             new  =    -276.0152950838 Ry

     CASE: energy            _new < energy            _old

     new trust radius        =       0.0040660553 bohr
     new conv_thr            =       0.0000000031 Ry


ATOMIC_POSITIONS (crystal)
O                0.0000000000        0.6632847378        0.0606219720
O                0.0000000000        0.3367152834        0.5606218793
O                0.5000000000        0.1632847084        0.0606218878
O                0.5000000000        0.8367152445        0.5606220092
O                0.5000000000        0.8324603764        0.9356119370
O                0.5000000000        0.1675396108        0.4356118887
O                0.0000000000        0.3324604087        0.9356118826
O                0.0000000000        0.6675396374        0.4356119468
H                0.0000000000        0.6617504597        0.1950535940
H                0.0000000000        0.3382495341        0.6950535047
H                0.5000000000        0.1617504577        0.1950535091
H                0.5000000000        0.8382495308        0.6950536399
H                0.0000000000        0.5422170401        0.0213634108
H                0.0000000000        0.4577829916        0.5213633701
H                0.5000000000        0.0422169964        0.0213633685
H                0.5000000000        0.9577829333        0.5213634526
H                0.6745726515        0.7702470284        0.9826746162
H                0.3254273609        0.2297529612        0.4826745808
H                0.6745726391        0.2297529612        0.4826745808
H                0.3254273485        0.7702470284        0.9826746162
H                0.1745726527        0.2702470561        0.9826745555
H                0.8254273648        0.7297529788        0.4826746540
H                0.1745726352        0.7297529788        0.4826746540
H                0.8254273473        0.2702470561        0.9826745555



     Writing config-only to output data dir ./iceIh/iceIh.save/ :
     XML data file
     NEW-OLD atomic charge density approx. for the potential

     negative rho (up, down):  8.806E-07 0.000E+00

     total cpu time spent up to now is      632.6 secs

     per-process dynamical memory:    69.9 Mb

     Self-consistent Calculation

     iteration #  1     ecut=    90.00 Ry     beta= 0.70
     Davidson diagonalization with overlap
     ethr =  1.00E-06,  avg # of iterations =  3.0

     Threshold (ethr) on eigenvalues was too large:
     Diagonalizing with lowered threshold

     Davidson diagonalization with overlap
     ethr =  1.44E-08,  avg # of iterations =  3.1

     negative rho (up, down):  8.894E-07 0.000E+00

     total cpu time spent up to now is      655.3 secs

     total energy              =    -276.01540355 Ry
     estimated scf accuracy    <       0.00001214 Ry

     iteration #  2     ecut=    90.00 Ry     beta= 0.70
     Davidson diagonalization with overlap
     ethr =  1.90E-08,  avg # of iterations =  2.0

     negative rho (up, down):  8.920E-07 0.000E+00

     total cpu time spent up to now is      663.9 secs

     total energy              =    -276.01540500 Ry
     estimated scf accuracy    <       0.00000045 Ry

     iteration #  3     ecut=    90.00 Ry     beta= 0.70
     Davidson diagonalization with overlap
     ethr =  7.04E-10,  avg # of iterations =  3.1

     negative rho (up, down):  8.926E-07 0.000E+00

     total cpu time spent up to now is      675.0 secs

     total energy              =    -276.01540511 Ry
     estimated scf accuracy    <       0.00000005 Ry

     iteration #  4     ecut=    90.00 Ry     beta= 0.70
     Davidson diagonalization with overlap
     ethr =  7.77E-11,  avg # of iterations =  2.5

     negative rho (up, down):  8.928E-07 0.000E+00

     total cpu time spent up to now is      685.8 secs

     total energy              =    -276.01540512 Ry
     estimated scf accuracy    <          6.9E-09 Ry

     iteration #  5     ecut=    90.00 Ry     beta= 0.70
     Davidson diagonalization with overlap
     ethr =  1.09E-11,  avg # of iterations =  2.0

     negative rho (up, down):  8.928E-07 0.000E+00

     total cpu time spent up to now is      695.7 secs

     End of self-consistent calculation

     Number of k-points >= 100: set verbosity='high' to print the bands.

     highest occupied level (ev):    -3.7145

!    total energy              =    -276.01540512 Ry
     estimated scf accuracy    <          4.4E-10 Ry

     The total energy is the sum of the following terms:
     one-electron contribution =    -242.56822199 Ry
     hartree contribution      =     141.34398132 Ry
     xc contribution           =     -67.60365704 Ry
     ewald contribution        =    -107.18750741 Ry

     convergence has been achieved in   5 iterations

     Forces acting on atoms (cartesian axes, Ry/au):

     atom    1 type  2   force =     0.00000000    0.00085402    0.00007020
     atom    2 type  2   force =     0.00000000   -0.00085408    0.00007033
     atom    3 type  2   force =     0.00000000    0.00085403    0.00007023
     atom    4 type  2   force =     0.00000000   -0.00085407    0.00007030
     atom    5 type  2   force =     0.00000000   -0.00094018    0.00300677
     atom    6 type  2   force =     0.00000000    0.00094016    0.00300681
     atom    7 type  2   force =     0.00000000   -0.00094017    0.00300678
     atom    8 type  2   force =     0.00000000    0.00094018    0.00300679
     atom    9 type  1   force =     0.00000000    0.00105003    0.00072373
     atom   10 type  1   force =     0.00000000   -0.00105002    0.00072368
     atom   11 type  1   force =     0.00000000    0.00105002    0.00072373
     atom   12 type  1   force =     0.00000000   -0.00105003    0.00072366
     atom   13 type  1   force =     0.00000000    0.00090088   -0.00121330
     atom   14 type  1   force =     0.00000000   -0.00090083   -0.00121334
     atom   15 type  1   force =     0.00000000    0.00090090   -0.00121331
     atom   16 type  1   force =     0.00000000   -0.00090080   -0.00121334
     atom   17 type  1   force =     0.00125033   -0.00054238   -0.00129369
     atom   18 type  1   force =    -0.00125034    0.00054237   -0.00129374
     atom   19 type  1   force =     0.00125034    0.00054237   -0.00129374
     atom   20 type  1   force =    -0.00125033   -0.00054238   -0.00129369
     atom   21 type  1   force =     0.00125031   -0.00054239   -0.00129371
     atom   22 type  1   force =    -0.00125037    0.00054237   -0.00129372
     atom   23 type  1   force =     0.00125037    0.00054237   -0.00129372
     atom   24 type  1   force =    -0.00125031   -0.00054239   -0.00129371

     Total force =     0.009302     Total SCF correction =     0.000069


     Computing stress (Cartesian axis) and pressure

          total   stress  (Ry/bohr**3)                   (kbar)     P=      -13.87
  -0.00010305   0.00000000   0.00000000          -15.16        0.00        0.00
   0.00000000  -0.00009324  -0.00000000            0.00      -13.72       -0.00
   0.00000000  -0.00000000  -0.00008651            0.00       -0.00      -12.73

     Energy error            =      1.1E-04 Ry
     Gradient error          =      3.0E-03 Ry/Bohr

     number of scf cycles    =   7
     number of bfgs steps    =   6

     energy             old  =    -276.0152950838 Ry
     energy             new  =    -276.0154051250 Ry

     CASE: energy            _new < energy            _old

     new trust radius        =       0.0044726608 bohr
     new conv_thr            =       0.0000000011 Ry


ATOMIC_POSITIONS (crystal)
O                0.0000000000        0.6634154291        0.0606466922
O                0.0000000000        0.3365845899        0.5606466048
O                0.5000000000        0.1634154017        0.0606466100
O                0.5000000000        0.8365845532        0.5606467313
O                0.5000000000        0.8325156462        0.9359246595
O                0.5000000000        0.1674843360        0.4359246165
O                0.0000000000        0.3325156807        0.9359246066
O                0.0000000000        0.6674843662        0.4359246714
H                0.0000000000        0.6618063931        0.1950600234
H                0.0000000000        0.3381936031        0.6950599358
H                0.5000000000        0.1618063902        0.1950599404
H                0.5000000000        0.8381935982        0.6950600673
H                0.0000000000        0.5423735161        0.0212812150
H                0.0000000000        0.4576265150        0.5212811723
H                0.5000000000        0.0423734753        0.0212811719
H                0.5000000000        0.9576264601        0.5212812552
H                0.6747099418        0.7700905642        0.9825437785
H                0.3252900699        0.2299094260        0.4825437381
H                0.6747099301        0.2299094260        0.4825437381
H                0.3252900582        0.7700905642        0.9825437785
H                0.1747099417        0.2700905907        0.9825437160
H                0.8252900722        0.7299094421        0.4825438137
H                0.1747099278        0.7299094421        0.4825438137
H                0.8252900583        0.2700905907        0.9825437160



     Writing config-only to output data dir ./iceIh/iceIh.save/ :
     XML data file
     NEW-OLD atomic charge density approx. for the potential

     negative rho (up, down):  8.918E-07 0.000E+00

     total cpu time spent up to now is      706.2 secs

     per-process dynamical memory:    69.9 Mb

     Self-consistent Calculation

     iteration #  1     ecut=    90.00 Ry     beta= 0.70
     Davidson diagonalization with overlap
     ethr =  1.00E-06,  avg # of iterations =  3.0

     Threshold (ethr) on eigenvalues was too large:
     Diagonalizing with lowered threshold

     Davidson diagonalization with overlap
     ethr =  1.66E-08,  avg # of iterations =  3.1

     negative rho (up, down):  9.043E-07 0.000E+00

     total cpu time spent up to now is      728.6 secs

     total energy              =    -276.01550505 Ry
     estimated scf accuracy    <       0.00001343 Ry

     iteration #  2     ecut=    90.00 Ry     beta= 0.70
     Davidson diagonalization with overlap
     ethr =  2.10E-08,  avg # of iterations =  2.0

     negative rho (up, down):  9.073E-07 0.000E+00

     total cpu time spent up to now is      738.1 secs

     total energy              =    -276.01550680 Ry
     estimated scf accuracy    <       0.00000176 Ry

     iteration #  3     ecut=    90.00 Ry     beta= 0.70
     Davidson diagonalization with overlap
     ethr =  2.75E-09,  avg # of iterations =  3.0

     negative rho (up, down):  9.087E-07 0.000E+00

     total cpu time spent up to now is      749.4 secs

     total energy              =    -276.01550730 Ry
     estimated scf accuracy    <       0.00000049 Ry

     iteration #  4     ecut=    90.00 Ry     beta= 0.70
     Davidson diagonalization with overlap
     ethr =  7.70E-10,  avg # of iterations =  2.1

     negative rho (up, down):  9.093E-07 0.000E+00

     total cpu time spent up to now is      758.4 secs

     total energy              =    -276.01550736 Ry
     estimated scf accuracy    <       0.00000002 Ry

     iteration #  5     ecut=    90.00 Ry     beta= 0.70
     Davidson diagonalization with overlap
     ethr =  2.91E-11,  avg # of iterations =  5.3

     negative rho (up, down):  9.094E-07 0.000E+00

     total cpu time spent up to now is      773.7 secs

     total energy              =    -276.01550737 Ry
     estimated scf accuracy    <       0.00000004 Ry

     iteration #  6     ecut=    90.00 Ry     beta= 0.70
     Davidson diagonalization with overlap
     ethr =  2.91E-11,  avg # of iterations =  3.0

     negative rho (up, down):  9.093E-07 0.000E+00

     total cpu time spent up to now is      785.5 secs

     End of self-consistent calculation

     Number of k-points >= 100: set verbosity='high' to print the bands.

     highest occupied level (ev):    -3.7169

!    total energy              =    -276.01550738 Ry
     estimated scf accuracy    <          2.8E-10 Ry

     The total energy is the sum of the following terms:
     one-electron contribution =    -242.56180749 Ry
     hartree contribution      =     141.34172304 Ry
     xc contribution           =     -67.60289321 Ry
     ewald contribution        =    -107.19252972 Ry

     convergence has been achieved in   6 iterations

     Forces acting on atoms (cartesian axes, Ry/au):

     atom    1 type  2   force =     0.00000000    0.00074205   -0.00027881
     atom    2 type  2   force =     0.00000000   -0.00074207   -0.00027875
     atom    3 type  2   force =     0.00000000    0.00074206   -0.00027879
     atom    4 type  2   force =     0.00000000   -0.00074206   -0.00027877
     atom    5 type  2   force =     0.00000000   -0.00112016    0.00242104
     atom    6 type  2   force =     0.00000000    0.00112015    0.00242107
     atom    7 type  2   force =     0.00000000   -0.00112016    0.00242105
     atom    8 type  2   force =     0.00000000    0.00112015    0.00242105
     atom    9 type  1   force =     0.00000000    0.00099064    0.00086583
     atom   10 type  1   force =     0.00000000   -0.00099062    0.00086582
     atom   11 type  1   force =     0.00000000    0.00099063    0.00086583
     atom   12 type  1   force =     0.00000000   -0.00099064    0.00086580
     atom   13 type  1   force =     0.00000000    0.00077582   -0.00098902
     atom   14 type  1   force =     0.00000000   -0.00077581   -0.00098904
     atom   15 type  1   force =     0.00000000    0.00077585   -0.00098902
     atom   16 type  1   force =     0.00000000   -0.00077578   -0.00098904
     atom   17 type  1   force =     0.00085828   -0.00033478   -0.00100952
     atom   18 type  1   force =    -0.00085829    0.00033477   -0.00100955
     atom   19 type  1   force =     0.00085829    0.00033477   -0.00100955
     atom   20 type  1   force =    -0.00085828   -0.00033478   -0.00100952
     atom   21 type  1   force =     0.00085826   -0.00033478   -0.00100953
     atom   22 type  1   force =    -0.00085832    0.00033477   -0.00100953
     atom   23 type  1   force =     0.00085832    0.00033477   -0.00100953
     atom   24 type  1   force =    -0.00085826   -0.00033478   -0.00100953

     Total force =     0.007692     Total SCF correction =     0.000029


     Computing stress (Cartesian axis) and pressure

          total   stress  (Ry/bohr**3)                   (kbar)     P=      -13.99
  -0.00010471   0.00000000   0.00000000          -15.40        0.00        0.00
   0.00000000  -0.00009370  -0.00000000            0.00      -13.78       -0.00
   0.00000000  -0.00000000  -0.00008692            0.00       -0.00      -12.79

     Energy error            =      1.0E-04 Ry
     Gradient error          =      2.4E-03 Ry/Bohr

     number of scf cycles    =   8
     number of bfgs steps    =   7

     energy             old  =    -276.0154051250 Ry
     energy             new  =    -276.0155073774 Ry

     CASE: energy            _new < energy            _old

     new trust radius        =       0.0067089912 bohr
     new conv_thr            =       0.0000000010 Ry


ATOMIC_POSITIONS (crystal)
O                0.0000000000        0.6636161575        0.0606669154
O                0.0000000000        0.3363838637        0.5606668278
O                0.5000000000        0.1636161333        0.0606668366
O                0.5000000000        0.8363838304        0.5606669479
O                0.5000000000        0.8325492533        0.9364006279
O                0.5000000000        0.1674507211        0.4364005912
O                0.0000000000        0.3325492903        0.9364005771
O                0.0000000000        0.6674507558        0.4364006416
H                0.0000000000        0.6619222589        0.1950957195
H                0.0000000000        0.3380777410        0.6950956406
H                0.5000000000        0.1619222544        0.1950956396
H                0.5000000000        0.8380777335        0.6950957669
H                0.0000000000        0.5426128690        0.0211404182
H                0.0000000000        0.4573871562        0.5211403742
H                0.5000000000        0.0426128333        0.0211403740
H                0.5000000000        0.9573871070        0.5211404574
H                0.6749357535        0.7698677173        0.9823482341
H                0.3250642556        0.2301322735        0.4823481866
H                0.6749357444        0.2301322735        0.4823481866
H                0.3250642465        0.7698677173        0.9823482341
H                0.1749357507        0.2698677420        0.9823481688
H                0.8250642545        0.7301322877        0.4823482656
H                0.1749357455        0.7301322877        0.4823482656
H                0.8250642493        0.2698677420        0.9823481688



     Writing config-only to output data dir ./iceIh/iceIh.save/ :
     XML data file
     NEW-OLD atomic charge density approx. for the potential

     negative rho (up, down):  9.075E-07 0.000E+00

     total cpu time spent up to now is      795.8 secs

     per-process dynamical memory:    69.9 Mb

     Self-consistent Calculation

     iteration #  1     ecut=    90.00 Ry     beta= 0.70
     Davidson diagonalization with overlap
     ethr =  1.00E-06,  avg # of iterations =  3.0

     Threshold (ethr) on eigenvalues was too large:
     Diagonalizing with lowered threshold

     Davidson diagonalization with overlap
     ethr =  4.56E-08,  avg # of iterations =  2.1

     negative rho (up, down):  9.236E-07 0.000E+00

     total cpu time spent up to now is      817.2 secs

     total energy              =    -276.01561294 Ry
     estimated scf accuracy    <       0.00003207 Ry

     iteration #  2     ecut=    90.00 Ry     beta= 0.70
     Davidson diagonalization with overlap
     ethr =  5.01E-08,  avg # of iterations =  2.1

     negative rho (up, down):  9.271E-07 0.000E+00

     total cpu time spent up to now is      827.0 secs

     total energy              =    -276.01561770 Ry
     estimated scf accuracy    <       0.00000626 Ry

     iteration #  3     ecut=    90.00 Ry     beta= 0.70
     Davidson diagonalization with overlap
     ethr =  9.78E-09,  avg # of iterations =  2.3

     negative rho (up, down):  9.293E-07 0.000E+00

     total cpu time spent up to now is      837.8 secs

     total energy              =    -276.01561943 Ry
     estimated scf accuracy    <       0.00000067 Ry

     iteration #  4     ecut=    90.00 Ry     beta= 0.70
     Davidson diagonalization with overlap
     ethr =  1.04E-09,  avg # of iterations =  2.1

     negative rho (up, down):  9.300E-07 0.000E+00

     total cpu time spent up to now is      846.1 secs

     total energy              =    -276.01561945 Ry
     estimated scf accuracy    <       0.00000007 Ry

     iteration #  5     ecut=    90.00 Ry     beta= 0.70
     Davidson diagonalization with overlap
     ethr =  1.06E-10,  avg # of iterations =  3.4

     negative rho (up, down):  9.301E-07 0.000E+00

     total cpu time spent up to now is      858.9 secs

     total energy              =    -276.01561948 Ry
     estimated scf accuracy    <       0.00000006 Ry

     iteration #  6     ecut=    90.00 Ry     beta= 0.70
     Davidson diagonalization with overlap
     ethr =  1.01E-10,  avg # of iterations =  2.6

     negative rho (up, down):  9.301E-07 0.000E+00

     total cpu time spent up to now is      868.8 secs

     End of self-consistent calculation

     Number of k-points >= 100: set verbosity='high' to print the bands.

     highest occupied level (ev):    -3.7202

!    total energy              =    -276.01561949 Ry
     estimated scf accuracy    <          7.8E-10 Ry

     The total energy is the sum of the following terms:
     one-electron contribution =    -242.55079487 Ry
     hartree contribution      =     141.33770621 Ry
     xc contribution           =     -67.60163438 Ry
     ewald contribution        =    -107.20089645 Ry

     convergence has been achieved in   6 iterations

     Forces acting on atoms (cartesian axes, Ry/au):

     atom    1 type  2   force =     0.00000000    0.00056426   -0.00035946
     atom    2 type  2   force =     0.00000000   -0.00056437   -0.00035928
     atom    3 type  2   force =     0.00000000    0.00056428   -0.00035945
     atom    4 type  2   force =     0.00000000   -0.00056437   -0.00035928
     atom    5 type  2   force =     0.00000000   -0.00101241    0.00128722
     atom    6 type  2   force =     0.00000000    0.00101243    0.00128725
     atom    7 type  2   force =     0.00000000   -0.00101241    0.00128723
     atom    8 type  2   force =     0.00000000    0.00101242    0.00128724
     atom    9 type  1   force =     0.00000000    0.00085312    0.00062313
     atom   10 type  1   force =     0.00000000   -0.00085311    0.00062303
     atom   11 type  1   force =     0.00000000    0.00085311    0.00062314
     atom   12 type  1   force =     0.00000000   -0.00085312    0.00062299
     atom   13 type  1   force =     0.00000000    0.00061648   -0.00059418
     atom   14 type  1   force =     0.00000000   -0.00061639   -0.00059422
     atom   15 type  1   force =     0.00000000    0.00061650   -0.00059418
     atom   16 type  1   force =     0.00000000   -0.00061636   -0.00059423
     atom   17 type  1   force =     0.00038009   -0.00020998   -0.00047835
     atom   18 type  1   force =    -0.00038009    0.00020996   -0.00047838
     atom   19 type  1   force =     0.00038009    0.00020996   -0.00047838
     atom   20 type  1   force =    -0.00038009   -0.00020998   -0.00047835
     atom   21 type  1   force =     0.00038008   -0.00020998   -0.00047836
     atom   22 type  1   force =    -0.00038011    0.00020996   -0.00047837
     atom   23 type  1   force =     0.00038011    0.00020996   -0.00047837
     atom   24 type  1   force =    -0.00038008   -0.00020998   -0.00047836

     Total force =     0.004822     Total SCF correction =     0.000041


     Computing stress (Cartesian axis) and pressure

          total   stress  (Ry/bohr**3)                   (kbar)     P=      -14.21
  -0.00010617   0.00000000   0.00000000          -15.62        0.00        0.00
   0.00000000  -0.00009394  -0.00000000            0.00      -13.82       -0.00
   0.00000000  -0.00000000  -0.00008968            0.00       -0.00      -13.19

     Energy error            =      1.1E-04 Ry
     Gradient error          =      1.3E-03 Ry/Bohr

     number of scf cycles    =   9
     number of bfgs steps    =   8

     energy             old  =    -276.0155073774 Ry
     energy             new  =    -276.0156194880 Ry

     CASE: energy            _new < energy            _old

     new trust radius        =       0.0086595568 bohr
     new conv_thr            =       0.0000000011 Ry


ATOMIC_POSITIONS (crystal)
O                0.0000000000        0.6639024170        0.0606800076
O                0.0000000000        0.3360975937        0.5606799419
O                0.5000000000        0.1639023979        0.0606799339
O                0.5000000000        0.8360975648        0.5606800553
O                0.5000000000        0.8325372274        0.9370165776
O                0.5000000000        0.1674627405        0.4370165501
O                0.0000000000        0.3325372672        0.9370165292
O                0.0000000000        0.6674627804        0.4370165951
H                0.0000000000        0.6621266103        0.1951537715
H                0.0000000000        0.3378733950        0.6951536883
H                0.5000000000        0.1621266031        0.1951536961
H                0.5000000000        0.8378733830        0.6951538044
H                0.0000000000        0.5429550417        0.0209410420
H                0.0000000000        0.4570449883        0.5209409916
H                0.5000000000        0.0429550132        0.0209409962
H                0.5000000000        0.9570449484        0.5209410743
H                0.6752347229        0.7695682427        0.9821043769
H                0.3247652855        0.2304317469        0.4821043188
H                0.6752347145        0.2304317469        0.4821043188
H                0.3247652771        0.7695682427        0.9821043769
H                0.1752347160        0.2695682652        0.9821043081
H                0.8247652797        0.7304317591        0.4821044018
H                0.1752347203        0.7304317591        0.4821044018
H                0.8247652840        0.2695682652        0.9821043081



     Writing config-only to output data dir ./iceIh/iceIh.save/ :
     XML data file
     NEW-OLD atomic charge density approx. for the potential

     negative rho (up, down):  9.280E-07 0.000E+00

     total cpu time spent up to now is      879.2 secs

     per-process dynamical memory:    69.9 Mb

     Self-consistent Calculation

     iteration #  1     ecut=    90.00 Ry     beta= 0.70
     Davidson diagonalization with overlap
     ethr =  1.00E-06,  avg # of iterations =  3.1

     Threshold (ethr) on eigenvalues was too large:
     Diagonalizing with lowered threshold

     Davidson diagonalization with overlap
     ethr =  8.50E-08,  avg # of iterations =  2.0

     negative rho (up, down):  9.400E-07 0.000E+00

     total cpu time spent up to now is      901.4 secs

     total energy              =    -276.01566711 Ry
     estimated scf accuracy    <       0.00005893 Ry

     iteration #  2     ecut=    90.00 Ry     beta= 0.70
     Davidson diagonalization with overlap
     ethr =  9.21E-08,  avg # of iterations =  2.5

     negative rho (up, down):  9.423E-07 0.000E+00

     total cpu time spent up to now is      911.7 secs

     total energy              =    -276.01567587 Ry
     estimated scf accuracy    <       0.00001444 Ry

     iteration #  3     ecut=    90.00 Ry     beta= 0.70
     Davidson diagonalization with overlap
     ethr =  2.26E-08,  avg # of iterations =  2.6

     negative rho (up, down):  9.441E-07 0.000E+00

     total cpu time spent up to now is      922.8 secs

     total energy              =    -276.01567991 Ry
     estimated scf accuracy    <       0.00000130 Ry

     iteration #  4     ecut=    90.00 Ry     beta= 0.70
     Davidson diagonalization with overlap
     ethr =  2.04E-09,  avg # of iterations =  1.6

     negative rho (up, down):  9.448E-07 0.000E+00

     total cpu time spent up to now is      930.9 secs

     total energy              =    -276.01567994 Ry
     estimated scf accuracy    <       0.00000017 Ry

     iteration #  5     ecut=    90.00 Ry     beta= 0.70
     Davidson diagonalization with overlap
     ethr =  2.62E-10,  avg # of iterations =  3.5

     negative rho (up, down):  9.448E-07 0.000E+00

     total cpu time spent up to now is      943.2 secs

     total energy              =    -276.01568000 Ry
     estimated scf accuracy    <       0.00000011 Ry

     iteration #  6     ecut=    90.00 Ry     beta= 0.70
     Davidson diagonalization with overlap
     ethr =  1.73E-10,  avg # of iterations =  2.5

     negative rho (up, down):  9.447E-07 0.000E+00

     total cpu time spent up to now is      952.9 secs

     total energy              =    -276.01568002 Ry
     estimated scf accuracy    <          1.1E-09 Ry

     iteration #  7     ecut=    90.00 Ry     beta= 0.70
     Davidson diagonalization with overlap
     ethr =  1.79E-12,  avg # of iterations =  6.3

     negative rho (up, down):  9.448E-07 0.000E+00

     total cpu time spent up to now is      971.4 secs

     total energy              =    -276.01568002 Ry
     estimated scf accuracy    <          4.7E-09 Ry

     iteration #  8     ecut=    90.00 Ry     beta= 0.70
     Davidson diagonalization with overlap
     ethr =  1.79E-12,  avg # of iterations =  4.0

     negative rho (up, down):  9.448E-07 0.000E+00

     total cpu time spent up to now is      985.1 secs

     End of self-consistent calculation

     Number of k-points >= 100: set verbosity='high' to print the bands.

     highest occupied level (ev):    -3.7247

!    total energy              =    -276.01568003 Ry
     estimated scf accuracy    <          1.2E-11 Ry

     The total energy is the sum of the following terms:
     one-electron contribution =    -242.53613204 Ry
     hartree contribution      =     141.33250221 Ry
     xc contribution           =     -67.60003422 Ry
     ewald contribution        =    -107.21201597 Ry

     convergence has been achieved in   8 iterations

     Forces acting on atoms (cartesian axes, Ry/au):

     atom    1 type  2   force =     0.00000000    0.00034169   -0.00021135
     atom    2 type  2   force =     0.00000000   -0.00034154   -0.00021159
     atom    3 type  2   force =     0.00000000    0.00034170   -0.00021135
     atom    4 type  2   force =     0.00000000   -0.00034152   -0.00021162
     atom    5 type  2   force =     0.00000000   -0.00063039   -0.00029625
     atom    6 type  2   force =     0.00000000    0.00063036   -0.00029630
     atom    7 type  2   force =     0.00000000   -0.00063040   -0.00029626
     atom    8 type  2   force =     0.00000000    0.00063035   -0.00029629
     atom    9 type  1   force =     0.00000000    0.00062110    0.00005506
     atom   10 type  1   force =     0.00000000   -0.00062109    0.00005524
     atom   11 type  1   force =     0.00000000    0.00062109    0.00005507
     atom   12 type  1   force =     0.00000000   -0.00062109    0.00005524
     atom   13 type  1   force =     0.00000000    0.00039033   -0.00003533
     atom   14 type  1   force =     0.00000000   -0.00039047   -0.00003528
     atom   15 type  1   force =     0.00000000    0.00039034   -0.00003533
     atom   16 type  1   force =     0.00000000   -0.00039047   -0.00003528
     atom   17 type  1   force =    -0.00017149   -0.00013551    0.00024395
     atom   18 type  1   force =     0.00017147    0.00013552    0.00024396
     atom   19 type  1   force =    -0.00017147    0.00013552    0.00024396
     atom   20 type  1   force =     0.00017149   -0.00013551    0.00024395
     atom   21 type  1   force =    -0.00017149   -0.00013551    0.00024395
     atom   22 type  1   force =     0.00017147    0.00013552    0.00024396
     atom   23 type  1   force =    -0.00017147    0.00013552    0.00024396
     atom   24 type  1   force =     0.00017149   -0.00013551    0.00024395

     Total force =     0.002369     Total SCF correction =     0.000006


     Computing stress (Cartesian axis) and pressure

          total   stress  (Ry/bohr**3)                   (kbar)     P=      -14.48
  -0.00010705   0.00000000   0.00000000          -15.75        0.00        0.00
   0.00000000  -0.00009380   0.00000000            0.00      -13.80        0.00
   0.00000000   0.00000000  -0.00009442            0.00        0.00      -13.89

     Energy error            =      6.1E-05 Ry
     Gradient error          =      6.3E-04 Ry/Bohr

     bfgs converged in  10 scf cycles and   9 bfgs steps
     (criteria: energy <  1.0E-04 Ry, force <  1.0E-03 Ry/Bohr)

     End of BFGS Geometry Optimization

     Final energy             =    -276.0156800256 Ry

     File ./iceIh/iceIh.bfgs deleted, as requested
Begin final coordinates

ATOMIC_POSITIONS (crystal)
O                0.0000000000        0.6639024170        0.0606800076
O                0.0000000000        0.3360975937        0.5606799419
O                0.5000000000        0.1639023979        0.0606799339
O                0.5000000000        0.8360975648        0.5606800553
O                0.5000000000        0.8325372274        0.9370165776
O                0.5000000000        0.1674627405        0.4370165501
O                0.0000000000        0.3325372672        0.9370165292
O                0.0000000000        0.6674627804        0.4370165951
H                0.0000000000        0.6621266103        0.1951537715
H                0.0000000000        0.3378733950        0.6951536883
H                0.5000000000        0.1621266031        0.1951536961
H                0.5000000000        0.8378733830        0.6951538044
H                0.0000000000        0.5429550417        0.0209410420
H                0.0000000000        0.4570449883        0.5209409916
H                0.5000000000        0.0429550132        0.0209409962
H                0.5000000000        0.9570449484        0.5209410743
H                0.6752347229        0.7695682427        0.9821043769
H                0.3247652855        0.2304317469        0.4821043188
H                0.6752347145        0.2304317469        0.4821043188
H                0.3247652771        0.7695682427        0.9821043769
H                0.1752347160        0.2695682652        0.9821043081
H                0.8247652797        0.7304317591        0.4821044018
H                0.1752347203        0.7304317591        0.4821044018
H                0.8247652840        0.2695682652        0.9821043081
End final coordinates



     Writing all to output data dir ./iceIh/iceIh.save/ :
     XML data file, charge density, pseudopotentials, collected wavefunctions

     init_run     :      4.94s CPU      5.04s WALL (       1 calls)
     electrons    :    874.42s CPU    887.99s WALL (      10 calls)
     update_pot   :      0.14s CPU      0.14s WALL (       9 calls)
     forces       :      6.25s CPU      6.28s WALL (      10 calls)
     stress       :     93.00s CPU     93.05s WALL (      10 calls)

     Called by init_run:
     wfcinit      :      4.34s CPU      4.40s WALL (       1 calls)
     potinit      :      0.03s CPU      0.04s WALL (       1 calls)
     hinit0       :      0.48s CPU      0.48s WALL (       1 calls)

     Called by electrons:
     c_bands      :    782.59s CPU    794.35s WALL (      77 calls)
     sum_band     :     90.40s CPU     91.33s WALL (      77 calls)
     v_of_rho     :      0.98s CPU      0.99s WALL (      83 calls)
     newd         :      0.19s CPU      0.20s WALL (      83 calls)
     mix_rho      :      0.15s CPU      0.15s WALL (      77 calls)

     Called by c_bands:
     init_us_2    :     11.78s CPU     12.19s WALL (   20125 calls)
     cegterg      :    753.90s CPU    760.28s WALL (    8855 calls)

     Called by *egterg:
     cdiaghg      :     60.22s CPU     60.45s WALL (   34482 calls)
     h_psi        :    569.73s CPU    575.50s WALL (   36092 calls)
     s_psi        :     22.92s CPU     23.03s WALL (   36092 calls)
     g_psi        :      2.16s CPU      2.17s WALL (   27122 calls)

     Called by h_psi:
     h_psi:calbec :     39.43s CPU     39.78s WALL (   36092 calls)
     vloc_psi     :    501.02s CPU    506.16s WALL (   36092 calls)
     add_vuspsi   :     24.91s CPU     25.11s WALL (   36092 calls)

     General routines
     calbec       :     52.44s CPU     52.92s WALL (   50697 calls)
     fft          :      0.99s CPU      0.99s WALL (    1006 calls)
     ffts         :      0.04s CPU      0.04s WALL (      77 calls)
     fftw         :    519.51s CPU    524.71s WALL ( 2113222 calls)

     Parallel routines

     PWSCF        :  16m22.28s CPU  16m48.59s WALL


   This run was terminated on:  14:48:50   1Apr2026            

=------------------------------------------------------------------------------=
   JOB DONE.
=------------------------------------------------------------------------------=
