
     Program PWSCF v.7.3.1 starts on 24Mar2026 at 20:57:18 

     This program is part of the open-source Quantum ESPRESSO suite
     for quantum simulation of materials; please cite
         "P. Giannozzi et al., J. Phys.:Condens. Matter 21 395502 (2009);
         "P. Giannozzi et al., J. Phys.:Condens. Matter 29 465901 (2017);
         "P. Giannozzi et al., J. Chem. Phys. 152 154105 (2020);
          URL http://www.quantum-espresso.org", 
     in publications or presentations arising from this work. More details at
     http://www.quantum-espresso.org/quote

     Parallel version (MPI), running on   128 processors

     MPI processes distributed on     1 nodes
     236909 MiB available memory on the printing compute node when the environment starts

     Waiting for input...
     Reading input from standard input

     Current dimensions of program PWSCF are:
     Max number of different atomic species (ntypx) = 10
     Max number of k-points (npk) =  40000
     Max angular momentum in pseudopotentials (lmaxx) =  4
     Found identity + ( -0.5000  0.5000 -0.0000) symmetry
     This is a supercell, fractional translations are disabled

     K-points division:     npool     =       4
     R & G space division:  proc/nbgrp/npool/nimage =      32
     Subspace diagonalization in iterative solution of the eigenvalue problem:
     a serial algorithm will be used


     Parallelization info
     --------------------
     sticks:   dense  smooth     PW     G-vecs:    dense   smooth      PW
     Min         116     116     32                 6600     6600     954
     Max         117     117     33                 6605     6605     959
     Sum        3735    3735   1025               211267   211267   30597

     Using Slab Decomposition



     bravais-lattice index     =            8
     lattice parameter (alat)  =       8.6607  a.u.
     unit-cell volume          =    1831.5299 (a.u.)^3
     number of atoms/cell      =           24
     number of atomic types    =            2
     number of electrons       =        64.00
     number of Kohn-Sham states=           32
     kinetic-energy cutoff     =      90.0000  Ry
     charge density cutoff     =     360.0000  Ry
     scf convergence threshold =      1.0E-07
     mixing beta               =       0.7000
     number of iterations used =            8  plain     mixing
     Exchange-correlation=  SLA  PW   PBE  PBE
                           (   1   4   3   4   0   0   0)

     celldm(1)=   8.660682  celldm(2)=   1.732119  celldm(3)=   1.627721
     celldm(4)=   0.000000  celldm(5)=   0.000000  celldm(6)=   0.000000

     crystal axes: (cart. coord. in units of alat)
               a(1) = (   1.000000   0.000000   0.000000 )  
               a(2) = (   0.000000   1.732119   0.000000 )  
               a(3) = (   0.000000   0.000000   1.627721 )  

     reciprocal axes: (cart. coord. in units 2 pi/alat)
               b(1) = (  1.000000  0.000000  0.000000 )  
               b(2) = (  0.000000  0.577328  0.000000 )  
               b(3) = (  0.000000  0.000000  0.614356 )  


     PseudoPot. # 1 for H  read from file:
     ./H.pbe-van_ak.UPF
     MD5 check sum: 077eb6d537518a38cb46c6de387227b7
     Pseudo is Ultrasoft, Zval =  1.0
     Generated by new atomic code, or converted to UPF format
     Using radial grid of  615 points,  1 beta functions with: 
                l(1) =   0
     Q(r) pseudized with  8 coefficients,  rinner =    0.800

     PseudoPot. # 2 for O  read from file:
     ./O.pbe-van_ak.UPF
     MD5 check sum: 78c19812648e8988a0fe644b0f25305e
     Pseudo is Ultrasoft, Zval =  6.0
     Generated by new atomic code, or converted to UPF format
     Using radial grid of  737 points,  4 beta functions with: 
                l(1) =   0
                l(2) =   0
                l(3) =   1
                l(4) =   1
     Q(r) pseudized with  8 coefficients,  rinner =    0.800   0.800   0.800


     atomic species   valence    mass     pseudopotential
     H                 1.00     1.00800     H ( 1.00)
     O                 6.00    16.00000     O ( 1.00)

      2 Sym. Ops. (no inversion) found



   Cartesian axes

     site n.     atom                  positions (alat units)
         1        O      tau(   1) = (   0.0000000   1.1484866   0.0984416  )
         2        O      tau(   2) = (   0.0000000   0.5836324   0.9123021  )
         3        O      tau(   3) = (   0.5000000   0.2824271   0.0984415  )
         4        O      tau(   4) = (   0.5000000   1.4496920   0.9123021  )
         5        O      tau(   5) = (   0.5000000   1.4402433   1.5187349  )
         6        O      tau(   6) = (   0.5000000   0.2918758   0.7048744  )
         7        O      tau(   7) = (   0.0000000   0.5741838   1.5187348  )
         8        O      tau(   8) = (   0.0000000   1.1579353   0.7048743  )
         9        H      tau(   9) = (   0.0000000   1.1487418   0.3216685  )
        10        H      tau(  10) = (   0.0000000   0.5833772   1.1355290  )
        11        H      tau(  11) = (   0.5000000   0.2826823   0.3216685  )
        12        H      tau(  12) = (   0.5000000   1.4494367   1.1355290  )
        13        H      tau(  13) = (   0.0000000   0.9333594   0.0315143  )
        14        H      tau(  14) = (   0.0000000   0.7987597   0.8453748  )
        15        H      tau(  15) = (   0.5000000   0.0672998   0.0315143  )
        16        H      tau(  16) = (   0.5000000   1.6648192   0.8453748  )
        17        H      tau(  17) = (   0.6820699   1.3365463   1.6012691  )
        18        H      tau(  18) = (   0.3179301   0.3955728   0.7874086  )
        19        H      tau(  19) = (   0.6820699   0.3955728   0.7874086  )
        20        H      tau(  20) = (   0.3179301   1.3365463   1.6012691  )
        21        H      tau(  21) = (   0.1820699   0.4704867   1.6012691  )
        22        H      tau(  22) = (   0.8179301   1.2616323   0.7874086  )
        23        H      tau(  23) = (   0.1820699   1.2616323   0.7874086  )
        24        H      tau(  24) = (   0.8179301   0.4704867   1.6012691  )

     number of k points=   460

     Number of k-points >= 100: set verbosity='high' to print them.

     Dense  grid:   211267 G-vectors     FFT dimensions: (  54,  96,  90)

     Estimated max dynamical RAM per process >      55.26 MB

     Estimated total dynamical RAM >       6.76 GB

     Initial potential from superposition of free atoms

     starting charge      63.9998, renormalised to      64.0000
     Starting wfcs are   48 randomized atomic wfcs

     total cpu time spent up to now is        5.4 secs

     per-process dynamical memory:    63.1 Mb

     Self-consistent Calculation

     iteration #  1     ecut=    90.00 Ry     beta= 0.70
     Davidson diagonalization with overlap
     ethr =  1.00E-02,  avg # of iterations =  2.0

     total cpu time spent up to now is       15.0 secs

     total energy              =    -274.92215716 Ry
     estimated scf accuracy    <       2.52306512 Ry

     iteration #  2     ecut=    90.00 Ry     beta= 0.70
     Davidson diagonalization with overlap
     ethr =  3.94E-03,  avg # of iterations =  3.0

     total cpu time spent up to now is       27.8 secs

     total energy              =    -275.70539865 Ry
     estimated scf accuracy    <       1.72485103 Ry

     iteration #  3     ecut=    90.00 Ry     beta= 0.70
     Davidson diagonalization with overlap
     ethr =  2.70E-03,  avg # of iterations =  2.0

     total cpu time spent up to now is       37.4 secs

     total energy              =    -275.93598653 Ry
     estimated scf accuracy    <       0.07043560 Ry

     iteration #  4     ecut=    90.00 Ry     beta= 0.70
     Davidson diagonalization with overlap
     ethr =  1.10E-04,  avg # of iterations =  4.0

     total cpu time spent up to now is       51.7 secs

     total energy              =    -275.99077589 Ry
     estimated scf accuracy    <       0.08537888 Ry

     iteration #  5     ecut=    90.00 Ry     beta= 0.70
     Davidson diagonalization with overlap
     ethr =  1.10E-04,  avg # of iterations =  2.0

     total cpu time spent up to now is       60.0 secs

     total energy              =    -275.99253350 Ry
     estimated scf accuracy    <       0.01325942 Ry

     iteration #  6     ecut=    90.00 Ry     beta= 0.70
     Davidson diagonalization with overlap
     ethr =  2.07E-05,  avg # of iterations =  2.0

     total cpu time spent up to now is       69.6 secs

     total energy              =    -275.99435039 Ry
     estimated scf accuracy    <       0.00127803 Ry

     iteration #  7     ecut=    90.00 Ry     beta= 0.70
     Davidson diagonalization with overlap
     ethr =  2.00E-06,  avg # of iterations =  3.2

     total cpu time spent up to now is       81.9 secs

     total energy              =    -275.99557594 Ry
     estimated scf accuracy    <       0.00082830 Ry

     iteration #  8     ecut=    90.00 Ry     beta= 0.70
     Davidson diagonalization with overlap
     ethr =  1.29E-06,  avg # of iterations =  1.9

     total cpu time spent up to now is       89.8 secs

     total energy              =    -275.99508349 Ry
     estimated scf accuracy    <       0.00154854 Ry

     iteration #  9     ecut=    90.00 Ry     beta= 0.70
     Davidson diagonalization with overlap
     ethr =  1.29E-06,  avg # of iterations =  2.0

     total cpu time spent up to now is       98.9 secs

     total energy              =    -275.99505801 Ry
     estimated scf accuracy    <       0.00034077 Ry

     iteration # 10     ecut=    90.00 Ry     beta= 0.70
     Davidson diagonalization with overlap
     ethr =  5.32E-07,  avg # of iterations =  2.0

     total cpu time spent up to now is      108.5 secs

     total energy              =    -275.99511057 Ry
     estimated scf accuracy    <       0.00002633 Ry

     iteration # 11     ecut=    90.00 Ry     beta= 0.70
     Davidson diagonalization with overlap
     ethr =  4.11E-08,  avg # of iterations =  3.0

     total cpu time spent up to now is      119.8 secs

     total energy              =    -275.99512049 Ry
     estimated scf accuracy    <       0.00000043 Ry

     iteration # 12     ecut=    90.00 Ry     beta= 0.70
     Davidson diagonalization with overlap
     ethr =  6.79E-10,  avg # of iterations =  5.7

     total cpu time spent up to now is      136.3 secs

     total energy              =    -275.99512121 Ry
     estimated scf accuracy    <       0.00000012 Ry

     iteration # 13     ecut=    90.00 Ry     beta= 0.70
     Davidson diagonalization with overlap
     ethr =  1.95E-10,  avg # of iterations =  2.0

     total cpu time spent up to now is      145.2 secs

     End of self-consistent calculation

     Number of k-points >= 100: set verbosity='high' to print the bands.

     highest occupied level (ev):    -3.6655

!    total energy              =    -275.99512122 Ry
     estimated scf accuracy    <       0.00000002 Ry

     The total energy is the sum of the following terms:
     one-electron contribution =    -240.05420362 Ry
     hartree contribution      =     140.16229604 Ry
     xc contribution           =     -67.25160221 Ry
     ewald contribution        =    -108.85161143 Ry

     convergence has been achieved in  13 iterations

     Forces acting on atoms (cartesian axes, Ry/au):

     atom    1 type  2   force =     0.00000000   -0.02710423    0.01289924
     atom    2 type  2   force =     0.00000000    0.02710412    0.01289916
     atom    3 type  2   force =     0.00000000   -0.02710440    0.01289932
     atom    4 type  2   force =     0.00000000    0.02710435    0.01289935
     atom    5 type  2   force =     0.00000000   -0.02399149    0.02840987
     atom    6 type  2   force =     0.00000000    0.02399131    0.02840970
     atom    7 type  2   force =     0.00000000   -0.02399143    0.02840984
     atom    8 type  2   force =     0.00000000    0.02399147    0.02840993
     atom    9 type  1   force =     0.00000000   -0.00293271   -0.02650424
     atom   10 type  1   force =     0.00000000    0.00293272   -0.02650422
     atom   11 type  1   force =     0.00000000   -0.00293272   -0.02650427
     atom   12 type  1   force =     0.00000000    0.00293273   -0.02650416
     atom   13 type  1   force =     0.00000000    0.03535140    0.01196841
     atom   14 type  1   force =     0.00000000   -0.03535129    0.01196838
     atom   15 type  1   force =     0.00000000    0.03535142    0.01196842
     atom   16 type  1   force =     0.00000000   -0.03535133    0.01196841
     atom   17 type  1   force =    -0.03494230    0.00979328   -0.01338663
     atom   18 type  1   force =     0.03494227   -0.00979328   -0.01338665
     atom   19 type  1   force =    -0.03494227   -0.00979328   -0.01338665
     atom   20 type  1   force =     0.03494230    0.00979328   -0.01338663
     atom   21 type  1   force =    -0.03494220    0.00979327   -0.01338665
     atom   22 type  1   force =     0.03494215   -0.00979325   -0.01338664
     atom   23 type  1   force =    -0.03494215   -0.00979325   -0.01338664
     atom   24 type  1   force =     0.03494220    0.00979327   -0.01338665

     Total force =     0.171813     Total SCF correction =     0.000107


     Computing stress (Cartesian axis) and pressure

          total   stress  (Ry/bohr**3)                   (kbar)     P=      -50.16
  -0.00039149   0.00000000   0.00000000          -57.59        0.00        0.00
   0.00000000  -0.00034043  -0.00000000            0.00      -50.08       -0.00
   0.00000000  -0.00000000  -0.00029092            0.00       -0.00      -42.80


     Writing all to output data dir ./iceIh/iceIh.save/ :
     XML data file, charge density, pseudopotentials, collected wavefunctions

     init_run     :      5.04s CPU      5.17s WALL (       1 calls)
     electrons    :    137.90s CPU    139.84s WALL (       1 calls)
     forces       :      0.62s CPU      0.63s WALL (       1 calls)
     stress       :      9.42s CPU      9.45s WALL (       1 calls)

     Called by init_run:
     wfcinit      :      4.44s CPU      4.53s WALL (       1 calls)
     potinit      :      0.03s CPU      0.04s WALL (       1 calls)
     hinit0       :      0.48s CPU      0.49s WALL (       1 calls)

     Called by electrons:
     c_bands      :    122.44s CPU    124.12s WALL (      13 calls)
     sum_band     :     15.19s CPU     15.41s WALL (      13 calls)
     v_of_rho     :      0.17s CPU      0.17s WALL (      14 calls)
     newd         :      0.03s CPU      0.04s WALL (      14 calls)
     mix_rho      :      0.04s CPU      0.04s WALL (      13 calls)

     Called by c_bands:
     init_us_2    :      2.02s CPU      2.09s WALL (    3335 calls)
     cegterg      :    118.74s CPU    119.71s WALL (    1495 calls)

     Called by *egterg:
     cdiaghg      :      9.44s CPU      9.48s WALL (    5518 calls)
     h_psi        :     92.94s CPU     93.88s WALL (    5633 calls)
     s_psi        :      3.82s CPU      3.84s WALL (    5633 calls)
     g_psi        :      0.34s CPU      0.34s WALL (    4023 calls)

     Called by h_psi:
     h_psi:calbec :      6.47s CPU      6.52s WALL (    5633 calls)
     vloc_psi     :     81.65s CPU     82.49s WALL (    5633 calls)
     add_vuspsi   :      4.03s CPU      4.05s WALL (    5633 calls)

     General routines
     calbec       :      8.40s CPU      8.48s WALL (    7703 calls)
     fft          :      0.55s CPU      0.56s WALL (     162 calls)
     ffts         :      0.01s CPU      0.01s WALL (      13 calls)
     fftw         :     85.09s CPU     85.97s WALL (  349330 calls)

     Parallel routines

     PWSCF        :   2m36.40s CPU   2m42.26s WALL


   This run was terminated on:  21: 0: 0  24Mar2026            

=------------------------------------------------------------------------------=
   JOB DONE.
=------------------------------------------------------------------------------=
