
     Program PWSCF v.7.3.1 starts on  1Apr2026 at 14:48:53 

     This program is part of the open-source Quantum ESPRESSO suite
     for quantum simulation of materials; please cite
         "P. Giannozzi et al., J. Phys.:Condens. Matter 21 395502 (2009);
         "P. Giannozzi et al., J. Phys.:Condens. Matter 29 465901 (2017);
         "P. Giannozzi et al., J. Chem. Phys. 152 154105 (2020);
          URL http://www.quantum-espresso.org", 
     in publications or presentations arising from this work. More details at
     http://www.quantum-espresso.org/quote

     Parallel version (MPI), running on   128 processors

     MPI processes distributed on     1 nodes
     236430 MiB available memory on the printing compute node when the environment starts

     Waiting for input...
     Reading input from standard input

     Current dimensions of program PWSCF are:
     Max number of different atomic species (ntypx) = 10
     Max number of k-points (npk) =  40000
     Max angular momentum in pseudopotentials (lmaxx) =  4
     Found identity + ( -0.5000 -0.5000  0.0000) symmetry
     This is a supercell, fractional translations are disabled

     K-points division:     npool     =       4
     R & G space division:  proc/nbgrp/npool/nimage =      32
     Subspace diagonalization in iterative solution of the eigenvalue problem:
     a serial algorithm will be used


     Parallelization info
     --------------------
     sticks:   dense  smooth     PW     G-vecs:    dense   smooth      PW
     Min         116     116     32                 6600     6600     954
     Max         117     117     33                 6605     6605     959
     Sum        3735    3735   1025               211267   211267   30597

     Using Slab Decomposition



     bravais-lattice index     =            8
     lattice parameter (alat)  =       8.6607  a.u.
     unit-cell volume          =    1831.5299 (a.u.)^3
     number of atoms/cell      =           24
     number of atomic types    =            2
     number of electrons       =        64.00
     number of Kohn-Sham states=           32
     kinetic-energy cutoff     =      90.0000  Ry
     charge density cutoff     =     360.0000  Ry
     scf convergence threshold =      1.0E-07
     mixing beta               =       0.7000
     number of iterations used =            8  plain     mixing
     energy convergence thresh.=      1.0E-04
     force convergence thresh. =      1.0E-03
     Exchange-correlation=  SLA  PW   PBE  PBE
                           (   1   4   3   4   0   0   0)
     nstep                     =           50


     celldm(1)=   8.660682  celldm(2)=   1.732119  celldm(3)=   1.627721
     celldm(4)=   0.000000  celldm(5)=   0.000000  celldm(6)=   0.000000

     crystal axes: (cart. coord. in units of alat)
               a(1) = (   1.000000   0.000000   0.000000 )  
               a(2) = (   0.000000   1.732119   0.000000 )  
               a(3) = (   0.000000   0.000000   1.627721 )  

     reciprocal axes: (cart. coord. in units 2 pi/alat)
               b(1) = (  1.000000  0.000000  0.000000 )  
               b(2) = (  0.000000  0.577328  0.000000 )  
               b(3) = (  0.000000  0.000000  0.614356 )  


     PseudoPot. # 1 for H  read from file:
     ./H.pbe-van_ak.UPF
     MD5 check sum: 077eb6d537518a38cb46c6de387227b7
     Pseudo is Ultrasoft, Zval =  1.0
     Generated by new atomic code, or converted to UPF format
     Using radial grid of  615 points,  1 beta functions with: 
                l(1) =   0
     Q(r) pseudized with  8 coefficients,  rinner =    0.800

     PseudoPot. # 2 for O  read from file:
     ./O.pbe-van_ak.UPF
     MD5 check sum: 78c19812648e8988a0fe644b0f25305e
     Pseudo is Ultrasoft, Zval =  6.0
     Generated by new atomic code, or converted to UPF format
     Using radial grid of  737 points,  4 beta functions with: 
                l(1) =   0
                l(2) =   0
                l(3) =   1
                l(4) =   1
     Q(r) pseudized with  8 coefficients,  rinner =    0.800   0.800   0.800


     atomic species   valence    mass     pseudopotential
     H                 1.00     1.00800     H ( 1.00)
     O                 6.00    16.00000     O ( 1.00)

      2 Sym. Ops. (no inversion) found



   Cartesian axes

     site n.     atom                  positions (alat units)
         1        O      tau(   1) = (   0.0000000   1.1515127   0.1027092  )
         2        O      tau(   2) = (   0.0000000   0.5806063   0.9165697  )
         3        O      tau(   3) = (   0.5000000   0.2854532   0.1027092  )
         4        O      tau(   4) = (   0.5000000   1.4466659   0.9165697  )
         5        O      tau(   5) = (   0.5000000   1.4298643   1.5250118  )
         6        O      tau(   6) = (   0.5000000   0.3022548   0.7111513  )
         7        O      tau(   7) = (   0.0000000   0.5638048   1.5250118  )
         8        O      tau(   8) = (   0.0000000   1.1683143   0.7111513  )
         9        H      tau(   9) = (   0.0000000   1.1494343   0.3195216  )
        10        H      tau(  10) = (   0.0000000   0.5826848   1.1333822  )
        11        H      tau(  11) = (   0.5000000   0.2833747   0.3195216  )
        12        H      tau(  12) = (   0.5000000   1.4487443   1.1333822  )
        13        H      tau(  13) = (   0.0000000   0.9289355   0.0297873  )
        14        H      tau(  14) = (   0.0000000   0.8031836   0.8436478  )
        15        H      tau(  15) = (   0.5000000   0.0628759   0.0297873  )
        16        H      tau(  16) = (   0.5000000   1.6692431   0.8436478  )
        17        H      tau(  17) = (   0.6766000   1.3420459   1.5979337  )
        18        H      tau(  18) = (   0.3234000   0.3900732   0.7840732  )
        19        H      tau(  19) = (   0.6766000   0.3900732   0.7840732  )
        20        H      tau(  20) = (   0.3234000   1.3420459   1.5979337  )
        21        H      tau(  21) = (   0.1766000   0.4759863   1.5979337  )
        22        H      tau(  22) = (   0.8234000   1.2561327   0.7840732  )
        23        H      tau(  23) = (   0.1766000   1.2561327   0.7840732  )
        24        H      tau(  24) = (   0.8234000   0.4759863   1.5979337  )

     number of k points=   460

     Number of k-points >= 100: set verbosity='high' to print them.

     Dense  grid:   211267 G-vectors     FFT dimensions: (  54,  96,  90)

     Estimated max dynamical RAM per process >      55.26 MB

     Estimated total dynamical RAM >       6.76 GB

     Initial potential from superposition of free atoms

     starting charge      63.9998, renormalised to      64.0000
     Starting wfcs are   48 randomized atomic wfcs

     total cpu time spent up to now is        5.2 secs

     per-process dynamical memory:    63.1 Mb

     Self-consistent Calculation

     iteration #  1     ecut=    90.00 Ry     beta= 0.70
     Davidson diagonalization with overlap
     ethr =  1.00E-02,  avg # of iterations =  2.0

     total cpu time spent up to now is       14.8 secs

     total energy              =    -274.81197632 Ry
     estimated scf accuracy    <       2.74081835 Ry

     iteration #  2     ecut=    90.00 Ry     beta= 0.70
     Davidson diagonalization with overlap
     ethr =  4.28E-03,  avg # of iterations =  3.0

     total cpu time spent up to now is       27.5 secs

     total energy              =    -275.65855986 Ry
     estimated scf accuracy    <       1.77970382 Ry

     iteration #  3     ecut=    90.00 Ry     beta= 0.70
     Davidson diagonalization with overlap
     ethr =  2.78E-03,  avg # of iterations =  2.0

     total cpu time spent up to now is       37.1 secs

     total energy              =    -275.90258682 Ry
     estimated scf accuracy    <       0.06826658 Ry

     iteration #  4     ecut=    90.00 Ry     beta= 0.70
     Davidson diagonalization with overlap
     ethr =  1.07E-04,  avg # of iterations =  4.0

     total cpu time spent up to now is       51.5 secs

     total energy              =    -275.95633287 Ry
     estimated scf accuracy    <       0.08504963 Ry

     iteration #  5     ecut=    90.00 Ry     beta= 0.70
     Davidson diagonalization with overlap
     ethr =  1.07E-04,  avg # of iterations =  2.0

     total cpu time spent up to now is       59.8 secs

     total energy              =    -275.95792165 Ry
     estimated scf accuracy    <       0.01259758 Ry

     iteration #  6     ecut=    90.00 Ry     beta= 0.70
     Davidson diagonalization with overlap
     ethr =  1.97E-05,  avg # of iterations =  2.0

     total cpu time spent up to now is       69.5 secs

     total energy              =    -275.96021834 Ry
     estimated scf accuracy    <       0.00076552 Ry

     iteration #  7     ecut=    90.00 Ry     beta= 0.70
     Davidson diagonalization with overlap
     ethr =  1.20E-06,  avg # of iterations =  3.8

     total cpu time spent up to now is       82.4 secs

     total energy              =    -275.96111309 Ry
     estimated scf accuracy    <       0.00066187 Ry

     iteration #  8     ecut=    90.00 Ry     beta= 0.70
     Davidson diagonalization with overlap
     ethr =  1.03E-06,  avg # of iterations =  1.7

     total cpu time spent up to now is       90.2 secs

     total energy              =    -275.96069137 Ry
     estimated scf accuracy    <       0.00121685 Ry

     iteration #  9     ecut=    90.00 Ry     beta= 0.70
     Davidson diagonalization with overlap
     ethr =  1.03E-06,  avg # of iterations =  2.0

     total cpu time spent up to now is       99.5 secs

     total energy              =    -275.96071500 Ry
     estimated scf accuracy    <       0.00021786 Ry

     iteration # 10     ecut=    90.00 Ry     beta= 0.70
     Davidson diagonalization with overlap
     ethr =  3.40E-07,  avg # of iterations =  2.0

     total cpu time spent up to now is      109.1 secs

     total energy              =    -275.96074897 Ry
     estimated scf accuracy    <       0.00002403 Ry

     iteration # 11     ecut=    90.00 Ry     beta= 0.70
     Davidson diagonalization with overlap
     ethr =  3.75E-08,  avg # of iterations =  3.0

     total cpu time spent up to now is      120.3 secs

     total energy              =    -275.96075657 Ry
     estimated scf accuracy    <       0.00000116 Ry

     iteration # 12     ecut=    90.00 Ry     beta= 0.70
     Davidson diagonalization with overlap
     ethr =  1.80E-09,  avg # of iterations =  4.3

     total cpu time spent up to now is      134.3 secs

     total energy              =    -275.96075835 Ry
     estimated scf accuracy    <       0.00000051 Ry

     iteration # 13     ecut=    90.00 Ry     beta= 0.70
     Davidson diagonalization with overlap
     ethr =  7.89E-10,  avg # of iterations =  4.0

     total cpu time spent up to now is      148.5 secs

     total energy              =    -275.96075916 Ry
     estimated scf accuracy    <       0.00000486 Ry

     iteration # 14     ecut=    90.00 Ry     beta= 0.70
     Davidson diagonalization with overlap
     ethr =  7.89E-10,  avg # of iterations =  2.0

     total cpu time spent up to now is      156.6 secs

     total energy              =    -275.96075754 Ry
     estimated scf accuracy    <       0.00000559 Ry

     iteration # 15     ecut=    90.00 Ry     beta= 0.70
     Davidson diagonalization with overlap
     ethr =  7.89E-10,  avg # of iterations =  3.0

     total cpu time spent up to now is      168.5 secs

     total energy              =    -275.96075757 Ry
     estimated scf accuracy    <       0.00000142 Ry

     iteration # 16     ecut=    90.00 Ry     beta= 0.70
     Davidson diagonalization with overlap
     ethr =  7.89E-10,  avg # of iterations =  2.0

     total cpu time spent up to now is      177.7 secs

     total energy              =    -275.96075729 Ry
     estimated scf accuracy    <       0.00000058 Ry

     iteration # 17     ecut=    90.00 Ry     beta= 0.70
     Davidson diagonalization with overlap
     ethr =  7.89E-10,  avg # of iterations =  3.0

     total cpu time spent up to now is      189.7 secs

     total energy              =    -275.96075758 Ry
     estimated scf accuracy    <       0.00000013 Ry

     iteration # 18     ecut=    90.00 Ry     beta= 0.70
     Davidson diagonalization with overlap
     ethr =  2.07E-10,  avg # of iterations =  2.6

     total cpu time spent up to now is      199.8 secs

     total energy              =    -275.96075760 Ry
     estimated scf accuracy    <       0.00000040 Ry

     iteration # 19     ecut=    90.00 Ry     beta= 0.70
     Davidson diagonalization with overlap
     ethr =  2.07E-10,  avg # of iterations =  1.0

     total cpu time spent up to now is      206.9 secs

     total energy              =    -275.96075762 Ry
     estimated scf accuracy    <       0.00000039 Ry

     iteration # 20     ecut=    90.00 Ry     beta= 0.70
     Davidson diagonalization with overlap
     ethr =  2.07E-10,  avg # of iterations =  1.0

     total cpu time spent up to now is      214.0 secs

     total energy              =    -275.96075740 Ry
     estimated scf accuracy    <       0.00000045 Ry

     iteration # 21     ecut=    90.00 Ry     beta= 0.70
     Davidson diagonalization with overlap
     ethr =  2.07E-10,  avg # of iterations =  3.1

     total cpu time spent up to now is      226.3 secs

     End of self-consistent calculation

     Number of k-points >= 100: set verbosity='high' to print the bands.

     highest occupied level (ev):    -3.6179

!    total energy              =    -275.96075748 Ry
     estimated scf accuracy    <          1.5E-09 Ry

     The total energy is the sum of the following terms:
     one-electron contribution =    -243.88694777 Ry
     hartree contribution      =     141.91810820 Ry
     xc contribution           =     -67.62697867 Ry
     ewald contribution        =    -106.36493923 Ry

     convergence has been achieved in  21 iterations

     Forces acting on atoms (cartesian axes, Ry/au):

     atom    1 type  2   force =     0.00000000   -0.07334426   -0.04004290
     atom    2 type  2   force =     0.00000000    0.07334444   -0.04004219
     atom    3 type  2   force =     0.00000000   -0.07334427   -0.04004282
     atom    4 type  2   force =     0.00000000    0.07334420   -0.04004224
     atom    5 type  2   force =     0.00000000    0.08326242   -0.05254779
     atom    6 type  2   force =     0.00000000   -0.08326222   -0.05254757
     atom    7 type  2   force =     0.00000000    0.08326273   -0.05254812
     atom    8 type  2   force =     0.00000000   -0.08326253   -0.05254788
     atom    9 type  1   force =     0.00000000   -0.00459138    0.00558663
     atom   10 type  1   force =     0.00000000    0.00459131    0.00558608
     atom   11 type  1   force =     0.00000000   -0.00459143    0.00558684
     atom   12 type  1   force =     0.00000000    0.00459133    0.00558618
     atom   13 type  1   force =     0.00000000    0.07606420    0.02929977
     atom   14 type  1   force =     0.00000000   -0.07606400    0.02929965
     atom   15 type  1   force =     0.00000000    0.07606398    0.02929980
     atom   16 type  1   force =     0.00000000   -0.07606385    0.02929969
     atom   17 type  1   force =     0.03869255   -0.04038755    0.02885219
     atom   18 type  1   force =    -0.03869247    0.04038738    0.02885212
     atom   19 type  1   force =     0.03869247    0.04038738    0.02885212
     atom   20 type  1   force =    -0.03869255   -0.04038755    0.02885219
     atom   21 type  1   force =     0.03869237   -0.04038741    0.02885210
     atom   22 type  1   force =    -0.03869229    0.04038724    0.02885203
     atom   23 type  1   force =     0.03869229    0.04038724    0.02885203
     atom   24 type  1   force =    -0.03869237   -0.04038741    0.02885210

     Total force =     0.353805     Total SCF correction =     0.000044


     Computing stress (Cartesian axis) and pressure

          total   stress  (Ry/bohr**3)                   (kbar)     P=       -9.46
   0.00018414   0.00000000   0.00000000           27.09        0.00        0.00
   0.00000000  -0.00036223   0.00000000            0.00      -53.29        0.00
   0.00000000   0.00000000  -0.00001483            0.00        0.00       -2.18


     BFGS Geometry Optimization
     Energy error            =      0.0E+00 Ry
     Gradient error          =      8.3E-02 Ry/Bohr

     number of scf cycles    =   1
     number of bfgs steps    =   0

     energy             new  =    -275.9607574757 Ry

     new trust radius        =       0.0984580493 bohr
     new conv_thr            =       0.0000001000 Ry


ATOMIC_POSITIONS (crystal)
O                0.0000000000        0.6599108052        0.0602595115
O                0.0000000000        0.3400892072        0.5602595393
O                0.5000000000        0.1599108042        0.0602595175
O                0.5000000000        0.8400891909        0.5602595356
O                0.5000000000        0.8310503458        0.9331724794
O                0.5000000000        0.1689496675        0.4331724650
O                0.0000000000        0.3310503666        0.9331724560
O                0.0000000000        0.6689496468        0.4331724430
H                0.0000000000        0.6632939631        0.1966962941
H                0.0000000000        0.3367060320        0.6966962850
H                0.5000000000        0.1632939601        0.1966963094
H                0.5000000000        0.8367060338        0.6966962923
H                0.0000000000        0.5413705000        0.0203784156
H                0.0000000000        0.4586295131        0.5203784031
H                0.5000000000        0.0413704856        0.0203784177
H                0.5000000000        0.9586295235        0.5203784055
H                0.6810675892        0.7721077390        0.9837466675
H                0.3189324204        0.2278922497        0.4837466629
H                0.6810675796        0.2278922497        0.4837466629
H                0.3189324108        0.7721077390        0.9837466675
H                0.1810675686        0.2721077485        0.9837466611
H                0.8189324414        0.7278922402        0.4837466566
H                0.1810675586        0.7278922402        0.4837466566
H                0.8189324314        0.2721077485        0.9837466611



     Writing config-only to output data dir ./iceIh/iceIh.save/ :
     XML data file
     NEW-OLD atomic charge density approx. for the potential

     total cpu time spent up to now is      236.6 secs

     per-process dynamical memory:    68.4 Mb

     Self-consistent Calculation

     iteration #  1     ecut=    90.00 Ry     beta= 0.70
     Davidson diagonalization with overlap
     ethr =  1.00E-06,  avg # of iterations = 10.0

     total cpu time spent up to now is      264.3 secs

     total energy              =    -275.98989303 Ry
     estimated scf accuracy    <       0.03332731 Ry

     iteration #  2     ecut=    90.00 Ry     beta= 0.70
     Davidson diagonalization with overlap
     ethr =  5.21E-05,  avg # of iterations =  3.0

     total cpu time spent up to now is      276.2 secs

     total energy              =    -275.99650934 Ry
     estimated scf accuracy    <       0.01754376 Ry

     iteration #  3     ecut=    90.00 Ry     beta= 0.70
     Davidson diagonalization with overlap
     ethr =  2.74E-05,  avg # of iterations =  2.9

     total cpu time spent up to now is      286.4 secs

     total energy              =    -276.00054300 Ry
     estimated scf accuracy    <       0.00025798 Ry

     iteration #  4     ecut=    90.00 Ry     beta= 0.70
     Davidson diagonalization with overlap
     ethr =  4.03E-07,  avg # of iterations =  5.3

     total cpu time spent up to now is      302.1 secs

     total energy              =    -276.00057980 Ry
     estimated scf accuracy    <       0.00055260 Ry

     iteration #  5     ecut=    90.00 Ry     beta= 0.70
     Davidson diagonalization with overlap
     ethr =  4.03E-07,  avg # of iterations =  4.0

     total cpu time spent up to now is      315.2 secs

     total energy              =    -276.00074950 Ry
     estimated scf accuracy    <       0.00006914 Ry

     iteration #  6     ecut=    90.00 Ry     beta= 0.70
     Davidson diagonalization with overlap
     ethr =  1.08E-07,  avg # of iterations =  2.0

     total cpu time spent up to now is      324.1 secs

     total energy              =    -276.00074903 Ry
     estimated scf accuracy    <       0.00002313 Ry

     iteration #  7     ecut=    90.00 Ry     beta= 0.70
     Davidson diagonalization with overlap
     ethr =  3.61E-08,  avg # of iterations =  2.1

     total cpu time spent up to now is      332.9 secs

     total energy              =    -276.00075015 Ry
     estimated scf accuracy    <       0.00000367 Ry

     iteration #  8     ecut=    90.00 Ry     beta= 0.70
     Davidson diagonalization with overlap
     ethr =  5.74E-09,  avg # of iterations =  3.2

     total cpu time spent up to now is      344.2 secs

     total energy              =    -276.00075171 Ry
     estimated scf accuracy    <       0.00000021 Ry

     iteration #  9     ecut=    90.00 Ry     beta= 0.70
     Davidson diagonalization with overlap
     ethr =  3.29E-10,  avg # of iterations =  3.0

     total cpu time spent up to now is      354.9 secs

     total energy              =    -276.00075174 Ry
     estimated scf accuracy    <       0.00000016 Ry

     iteration # 10     ecut=    90.00 Ry     beta= 0.70
     Davidson diagonalization with overlap
     ethr =  2.46E-10,  avg # of iterations =  1.3

     total cpu time spent up to now is      363.0 secs

     End of self-consistent calculation

     Number of k-points >= 100: set verbosity='high' to print the bands.

     highest occupied level (ev):    -3.7031

!    total energy              =    -276.00075170 Ry
     estimated scf accuracy    <       0.00000005 Ry

     The total energy is the sum of the following terms:
     one-electron contribution =    -241.92162046 Ry
     hartree contribution      =     141.01796058 Ry
     xc contribution           =     -67.43521952 Ry
     ewald contribution        =    -107.66187230 Ry

     convergence has been achieved in  10 iterations

     Forces acting on atoms (cartesian axes, Ry/au):

     atom    1 type  2   force =     0.00000000    0.03677939    0.02619239
     atom    2 type  2   force =     0.00000000   -0.03677928    0.02619192
     atom    3 type  2   force =     0.00000000    0.03677921    0.02619243
     atom    4 type  2   force =     0.00000000   -0.03677893    0.02619197
     atom    5 type  2   force =     0.00000000   -0.02043832    0.02194596
     atom    6 type  2   force =     0.00000000    0.02043816    0.02194587
     atom    7 type  2   force =     0.00000000   -0.02043840    0.02194603
     atom    8 type  2   force =     0.00000000    0.02043824    0.02194593
     atom    9 type  1   force =     0.00000000   -0.00713992   -0.02176299
     atom   10 type  1   force =     0.00000000    0.00713998   -0.02176265
     atom   11 type  1   force =     0.00000000   -0.00713992   -0.02176308
     atom   12 type  1   force =     0.00000000    0.00713995   -0.02176275
     atom   13 type  1   force =     0.00000000   -0.02081028   -0.00284532
     atom   14 type  1   force =     0.00000000    0.02081012   -0.00284521
     atom   15 type  1   force =     0.00000000   -0.02081011   -0.00284526
     atom   16 type  1   force =     0.00000000    0.02080982   -0.00284514
     atom   17 type  1   force =    -0.03119139    0.00589881   -0.01176502
     atom   18 type  1   force =     0.03119130   -0.00589873   -0.01176498
     atom   19 type  1   force =    -0.03119130   -0.00589873   -0.01176498
     atom   20 type  1   force =     0.03119139    0.00589881   -0.01176502
     atom   21 type  1   force =    -0.03119136    0.00589884   -0.01176505
     atom   22 type  1   force =     0.03119126   -0.00589876   -0.01176500
     atom   23 type  1   force =    -0.03119126   -0.00589876   -0.01176500
     atom   24 type  1   force =     0.03119136    0.00589884   -0.01176505

     Total force =     0.157430     Total SCF correction =     0.000173


     Computing stress (Cartesian axis) and pressure

          total   stress  (Ry/bohr**3)                   (kbar)     P=      -31.81
  -0.00035003   0.00000000   0.00000000          -51.49        0.00        0.00
   0.00000000  -0.00005727   0.00000000            0.00       -8.43        0.00
   0.00000000   0.00000000  -0.00024143            0.00        0.00      -35.52

     Energy error            =      4.0E-02 Ry
     Gradient error          =      3.7E-02 Ry/Bohr

     number of scf cycles    =   2
     number of bfgs steps    =   1

     energy             old  =    -275.9607574757 Ry
     energy             new  =    -276.0007517001 Ry

     CASE: energy            _new < energy            _old

     new trust radius        =       0.0303993921 bohr
     new conv_thr            =       0.0000000368 Ry


ATOMIC_POSITIONS (crystal)
O                0.0000000000        0.6615507683        0.0615262397
O                0.0000000000        0.3384492497        0.5615262450
O                0.5000000000        0.1615507586        0.0615262481
O                0.5000000000        0.8384492501        0.5615262434
O                0.5000000000        0.8302174183        0.9341965527
O                0.5000000000        0.1697825876        0.4341965344
O                0.0000000000        0.3302174357        0.9341965323
O                0.0000000000        0.6697825701        0.4341965146
H                0.0000000000        0.6629408688        0.1955894433
H                0.0000000000        0.3370591291        0.6955894506
H                0.5000000000        0.1629408656        0.1955894541
H                0.5000000000        0.8370591293        0.6955894529
H                0.0000000000        0.5405063419        0.0202897804
H                0.0000000000        0.4594936638        0.5202897734
H                0.5000000000        0.0405063350        0.0202897857
H                0.5000000000        0.9594936604        0.5202897795
H                0.6785834541        0.7723179643        0.9831990097
H                0.3214165486        0.2276820276        0.4831990072
H                0.6785834514        0.2276820276        0.4831990072
H                0.3214165459        0.7723179643        0.9831990097
H                0.1785834355        0.2723179756        0.9831990017
H                0.8214165670        0.7276820163        0.4831989994
H                0.1785834330        0.7276820163        0.4831989994
H                0.8214165645        0.2723179756        0.9831990017



     Writing config-only to output data dir ./iceIh/iceIh.save/ :
     XML data file
     NEW-OLD atomic charge density approx. for the potential

     total cpu time spent up to now is      373.3 secs

     per-process dynamical memory:    69.2 Mb

     Self-consistent Calculation

     iteration #  1     ecut=    90.00 Ry     beta= 0.70
     Davidson diagonalization with overlap
     ethr =  1.00E-06,  avg # of iterations =  6.2

     total cpu time spent up to now is      392.8 secs

     total energy              =    -276.00910173 Ry
     estimated scf accuracy    <       0.00260580 Ry

     iteration #  2     ecut=    90.00 Ry     beta= 0.70
     Davidson diagonalization with overlap
     ethr =  4.07E-06,  avg # of iterations =  3.0

     total cpu time spent up to now is      404.4 secs

     total energy              =    -276.00966962 Ry
     estimated scf accuracy    <       0.00082499 Ry

     iteration #  3     ecut=    90.00 Ry     beta= 0.70
     Davidson diagonalization with overlap
     ethr =  1.29E-06,  avg # of iterations =  3.0

     total cpu time spent up to now is      415.1 secs

     total energy              =    -276.00985644 Ry
     estimated scf accuracy    <       0.00002738 Ry

     iteration #  4     ecut=    90.00 Ry     beta= 0.70
     Davidson diagonalization with overlap
     ethr =  4.28E-08,  avg # of iterations =  3.0

     total cpu time spent up to now is      426.0 secs

     total energy              =    -276.00986194 Ry
     estimated scf accuracy    <       0.00000541 Ry

     iteration #  5     ecut=    90.00 Ry     beta= 0.70
     Davidson diagonalization with overlap
     ethr =  8.45E-09,  avg # of iterations =  3.1

     total cpu time spent up to now is      437.0 secs

     total energy              =    -276.00986352 Ry
     estimated scf accuracy    <       0.00000027 Ry

     iteration #  6     ecut=    90.00 Ry     beta= 0.70
     Davidson diagonalization with overlap
     ethr =  4.27E-10,  avg # of iterations =  2.9

     total cpu time spent up to now is      447.5 secs

     total energy              =    -276.00986354 Ry
     estimated scf accuracy    <       0.00000011 Ry

     iteration #  7     ecut=    90.00 Ry     beta= 0.70
     Davidson diagonalization with overlap
     ethr =  1.75E-10,  avg # of iterations =  3.1

     total cpu time spent up to now is      458.8 secs

     End of self-consistent calculation

     Number of k-points >= 100: set verbosity='high' to print the bands.

     highest occupied level (ev):    -3.7160

!    total energy              =    -276.00986356 Ry
     estimated scf accuracy    <          9.4E-09 Ry

     The total energy is the sum of the following terms:
     one-electron contribution =    -242.80677992 Ry
     hartree contribution      =     141.42118302 Ry
     xc contribution           =     -67.52170072 Ry
     ewald contribution        =    -107.10256595 Ry

     convergence has been achieved in   7 iterations

     Forces acting on atoms (cartesian axes, Ry/au):

     atom    1 type  2   force =     0.00000000   -0.00095461   -0.00792841
     atom    2 type  2   force =     0.00000000    0.00095447   -0.00792837
     atom    3 type  2   force =     0.00000000   -0.00095457   -0.00792839
     atom    4 type  2   force =     0.00000000    0.00095441   -0.00792830
     atom    5 type  2   force =     0.00000000    0.00192141    0.00658115
     atom    6 type  2   force =     0.00000000   -0.00192144    0.00658116
     atom    7 type  2   force =     0.00000000    0.00192138    0.00658119
     atom    8 type  2   force =     0.00000000   -0.00192141    0.00658120
     atom    9 type  1   force =     0.00000000   -0.00479499    0.00006861
     atom   10 type  1   force =     0.00000000    0.00479503    0.00006857
     atom   11 type  1   force =     0.00000000   -0.00479500    0.00006858
     atom   12 type  1   force =     0.00000000    0.00479503    0.00006853
     atom   13 type  1   force =     0.00000000    0.01067906    0.00654643
     atom   14 type  1   force =     0.00000000   -0.01067899    0.00654645
     atom   15 type  1   force =     0.00000000    0.01067904    0.00654645
     atom   16 type  1   force =     0.00000000   -0.01067893    0.00654643
     atom   17 type  1   force =    -0.01364366   -0.00325164   -0.00263390
     atom   18 type  1   force =     0.01364365    0.00325166   -0.00263391
     atom   19 type  1   force =    -0.01364365    0.00325166   -0.00263391
     atom   20 type  1   force =     0.01364366   -0.00325164   -0.00263390
     atom   21 type  1   force =    -0.01364362   -0.00325163   -0.00263391
     atom   22 type  1   force =     0.01364361    0.00325165   -0.00263392
     atom   23 type  1   force =    -0.01364361    0.00325165   -0.00263392
     atom   24 type  1   force =     0.01364362   -0.00325163   -0.00263391

     Total force =     0.052839     Total SCF correction =     0.000066


     Computing stress (Cartesian axis) and pressure

          total   stress  (Ry/bohr**3)                   (kbar)     P=      -23.23
  -0.00021114   0.00000000   0.00000000          -31.06        0.00        0.00
   0.00000000  -0.00015445  -0.00000000            0.00      -22.72       -0.00
   0.00000000  -0.00000000  -0.00010825            0.00       -0.00      -15.92

     Energy error            =      9.1E-03 Ry
     Gradient error          =      1.4E-02 Ry/Bohr

     number of scf cycles    =   3
     number of bfgs steps    =   2

     energy             old  =    -276.0007517001 Ry
     energy             new  =    -276.0098635648 Ry

     CASE: energy            _new < energy            _old

     new trust radius        =       0.0196217857 bohr
     new conv_thr            =       0.0000000136 Ry


ATOMIC_POSITIONS (crystal)
O                0.0000000000        0.6617389469        0.0611202777
O                0.0000000000        0.3382610622        0.5611202819
O                0.5000000000        0.1617389384        0.0611202884
O                0.5000000000        0.8382610616        0.5611202866
O                0.5000000000        0.8302774334        0.9348622536
O                0.5000000000        0.1697225692        0.4348622359
O                0.0000000000        0.3302774481        0.9348622367
O                0.0000000000        0.6697225542        0.4348622188
H                0.0000000000        0.6625103129        0.1953731767
H                0.0000000000        0.3374896889        0.6953731840
H                0.5000000000        0.1625103088        0.1953731845
H                0.5000000000        0.8374896884        0.6953731822
H                0.0000000000        0.5411965086        0.0208179043
H                0.0000000000        0.4588035016        0.5208178992
H                0.5000000000        0.0411965014        0.0208179111
H                0.5000000000        0.9588034999        0.5208179044
H                0.6764053384        0.7720782384        0.9829132108
H                0.3235946617        0.2279217554        0.4829132084
H                0.6764053383        0.2279217554        0.4829132084
H                0.3235946616        0.7720782384        0.9829132108
H                0.1764053251        0.2720782509        0.9829132015
H                0.8235946745        0.7279217429        0.4829131992
H                0.1764053255        0.7279217429        0.4829131992
H                0.8235946749        0.2720782509        0.9829132015



     Writing config-only to output data dir ./iceIh/iceIh.save/ :
     XML data file
     NEW-OLD atomic charge density approx. for the potential

     total cpu time spent up to now is      469.1 secs

     per-process dynamical memory:    64.2 Mb

     Self-consistent Calculation

     iteration #  1     ecut=    90.00 Ry     beta= 0.70
     Davidson diagonalization with overlap
     ethr =  1.00E-06,  avg # of iterations =  4.0

     total cpu time spent up to now is      484.1 secs

     total energy              =    -276.01185455 Ry
     estimated scf accuracy    <       0.00042730 Ry

     iteration #  2     ecut=    90.00 Ry     beta= 0.70
     Davidson diagonalization with overlap
     ethr =  6.68E-07,  avg # of iterations =  3.0

     total cpu time spent up to now is      495.7 secs

     total energy              =    -276.01194494 Ry
     estimated scf accuracy    <       0.00014640 Ry

     iteration #  3     ecut=    90.00 Ry     beta= 0.70
     Davidson diagonalization with overlap
     ethr =  2.29E-07,  avg # of iterations =  3.0

     total cpu time spent up to now is      505.9 secs

     total energy              =    -276.01197786 Ry
     estimated scf accuracy    <       0.00000416 Ry

     iteration #  4     ecut=    90.00 Ry     beta= 0.70
     Davidson diagonalization with overlap
     ethr =  6.51E-09,  avg # of iterations =  3.0

     total cpu time spent up to now is      517.5 secs

     total energy              =    -276.01197891 Ry
     estimated scf accuracy    <       0.00000151 Ry

     iteration #  5     ecut=    90.00 Ry     beta= 0.70
     Davidson diagonalization with overlap
     ethr =  2.35E-09,  avg # of iterations =  2.0

     total cpu time spent up to now is      526.9 secs

     total energy              =    -276.01197909 Ry
     estimated scf accuracy    <       0.00000012 Ry

     iteration #  6     ecut=    90.00 Ry     beta= 0.70
     Davidson diagonalization with overlap
     ethr =  1.89E-10,  avg # of iterations =  4.2

     total cpu time spent up to now is      539.7 secs

     total energy              =    -276.01197914 Ry
     estimated scf accuracy    <       0.00000007 Ry

     iteration #  7     ecut=    90.00 Ry     beta= 0.70
     Davidson diagonalization with overlap
     ethr =  1.15E-10,  avg # of iterations =  3.0

     total cpu time spent up to now is      549.9 secs

     End of self-consistent calculation

     Number of k-points >= 100: set verbosity='high' to print the bands.

     highest occupied level (ev):    -3.7288

!    total energy              =    -276.01197915 Ry
     estimated scf accuracy    <          5.0E-10 Ry

     The total energy is the sum of the following terms:
     one-electron contribution =    -243.54003900 Ry
     hartree contribution      =     141.75232444 Ry
     xc contribution           =     -67.59230566 Ry
     ewald contribution        =    -106.63195893 Ry

     convergence has been achieved in   7 iterations

     Forces acting on atoms (cartesian axes, Ry/au):

     atom    1 type  2   force =     0.00000000    0.00383780   -0.00084699
     atom    2 type  2   force =     0.00000000   -0.00383779   -0.00084698
     atom    3 type  2   force =     0.00000000    0.00383782   -0.00084704
     atom    4 type  2   force =     0.00000000   -0.00383780   -0.00084705
     atom    5 type  2   force =     0.00000000    0.01150839   -0.00263691
     atom    6 type  2   force =     0.00000000   -0.01150839   -0.00263688
     atom    7 type  2   force =     0.00000000    0.01150839   -0.00263690
     atom    8 type  2   force =     0.00000000   -0.01150838   -0.00263687
     atom    9 type  1   force =     0.00000000   -0.00326333   -0.00266843
     atom   10 type  1   force =     0.00000000    0.00326335   -0.00266847
     atom   11 type  1   force =     0.00000000   -0.00326333   -0.00266840
     atom   12 type  1   force =     0.00000000    0.00326335   -0.00266840
     atom   13 type  1   force =     0.00000000    0.00391020    0.00310068
     atom   14 type  1   force =     0.00000000   -0.00391024    0.00310071
     atom   15 type  1   force =     0.00000000    0.00391019    0.00310069
     atom   16 type  1   force =     0.00000000   -0.00391022    0.00310071
     atom   17 type  1   force =    -0.00154321   -0.00775831    0.00152582
     atom   18 type  1   force =     0.00154322    0.00775831    0.00152581
     atom   19 type  1   force =    -0.00154322    0.00775831    0.00152581
     atom   20 type  1   force =     0.00154321   -0.00775831    0.00152582
     atom   21 type  1   force =    -0.00154317   -0.00775831    0.00152582
     atom   22 type  1   force =     0.00154318    0.00775831    0.00152581
     atom   23 type  1   force =    -0.00154318    0.00775831    0.00152581
     atom   24 type  1   force =     0.00154317   -0.00775831    0.00152582

     Total force =     0.036184     Total SCF correction =     0.000034


     Computing stress (Cartesian axis) and pressure

          total   stress  (Ry/bohr**3)                   (kbar)     P=      -15.61
  -0.00012090   0.00000000   0.00000000          -17.79        0.00        0.00
   0.00000000  -0.00009568   0.00000000            0.00      -14.07        0.00
   0.00000000   0.00000000  -0.00010186            0.00        0.00      -14.98

     Energy error            =      2.1E-03 Ry
     Gradient error          =      1.2E-02 Ry/Bohr

     number of scf cycles    =   4
     number of bfgs steps    =   3

     energy             old  =    -276.0098635648 Ry
     energy             new  =    -276.0119791529 Ry

     CASE: energy            _new < energy            _old

     new trust radius        =       0.0189762734 bohr
     new conv_thr            =       0.0000000115 Ry


ATOMIC_POSITIONS (crystal)
O                0.0000000000        0.6623401685        0.0609717919
O                0.0000000000        0.3376598375        0.5609717943
O                0.5000000000        0.1623401611        0.0609718004
O                0.5000000000        0.8376598377        0.5609717964
O                0.5000000000        0.8312624720        0.9350688157
O                0.5000000000        0.1687375285        0.4350688011
O                0.0000000000        0.3312624847        0.9350688015
O                0.0000000000        0.6687375160        0.4350687863
H                0.0000000000        0.6619436494        0.1948563197
H                0.0000000000        0.3380563568        0.6948563253
H                0.5000000000        0.1619436441        0.1948563280
H                0.5000000000        0.8380563555        0.6948563269
H                0.0000000000        0.5418472879        0.0214003427
H                0.0000000000        0.4581527204        0.5214003419
H                0.5000000000        0.0418472810        0.0214003519
H                0.5000000000        0.9581527190        0.5214003470
H                0.6747196603        0.7712722096        0.9828513811
H                0.3252803391        0.2287277856        0.4828513779
H                0.6747196609        0.2287277856        0.4828513779
H                0.3252803397        0.7712722096        0.9828513811
H                0.1747196558        0.2712722226        0.9828513710
H                0.8252803434        0.7287277721        0.4828513676
H                0.1747196566        0.7287277721        0.4828513676
H                0.8252803442        0.2712722226        0.9828513710



     Writing config-only to output data dir ./iceIh/iceIh.save/ :
     XML data file
     NEW-OLD atomic charge density approx. for the potential

     total cpu time spent up to now is      560.3 secs

     per-process dynamical memory:    66.7 Mb

     Self-consistent Calculation

     iteration #  1     ecut=    90.00 Ry     beta= 0.70
     Davidson diagonalization with overlap
     ethr =  1.00E-06,  avg # of iterations =  4.0

     total cpu time spent up to now is      575.6 secs

     total energy              =    -276.01345386 Ry
     estimated scf accuracy    <       0.00015466 Ry

     iteration #  2     ecut=    90.00 Ry     beta= 0.70
     Davidson diagonalization with overlap
     ethr =  2.42E-07,  avg # of iterations =  2.0

     total cpu time spent up to now is      584.7 secs

     total energy              =    -276.01347440 Ry
     estimated scf accuracy    <       0.00001556 Ry

     iteration #  3     ecut=    90.00 Ry     beta= 0.70
     Davidson diagonalization with overlap
     ethr =  2.43E-08,  avg # of iterations =  2.8

     total cpu time spent up to now is      595.9 secs

     total energy              =    -276.01347782 Ry
     estimated scf accuracy    <       0.00000574 Ry

     iteration #  4     ecut=    90.00 Ry     beta= 0.70
     Davidson diagonalization with overlap
     ethr =  8.97E-09,  avg # of iterations =  2.0

     total cpu time spent up to now is      605.3 secs

     total energy              =    -276.01347878 Ry
     estimated scf accuracy    <       0.00000013 Ry

     iteration #  5     ecut=    90.00 Ry     beta= 0.70
     Davidson diagonalization with overlap
     ethr =  2.05E-10,  avg # of iterations =  5.8

     total cpu time spent up to now is      621.5 secs

     total energy              =    -276.01347885 Ry
     estimated scf accuracy    <       0.00000033 Ry

     iteration #  6     ecut=    90.00 Ry     beta= 0.70
     Davidson diagonalization with overlap
     ethr =  2.05E-10,  avg # of iterations =  3.0

     total cpu time spent up to now is      632.7 secs

     total energy              =    -276.01347888 Ry
     estimated scf accuracy    <       0.00000002 Ry

     iteration #  7     ecut=    90.00 Ry     beta= 0.70
     Davidson diagonalization with overlap
     ethr =  3.77E-11,  avg # of iterations =  3.6

     total cpu time spent up to now is      645.6 secs

     End of self-consistent calculation

     Number of k-points >= 100: set verbosity='high' to print the bands.

     highest occupied level (ev):    -3.7462

!    total energy              =    -276.01347889 Ry
     estimated scf accuracy    <          6.6E-09 Ry

     The total energy is the sum of the following terms:
     one-electron contribution =    -243.73913861 Ry
     hartree contribution      =     141.83761124 Ry
     xc contribution           =     -67.60999245 Ry
     ewald contribution        =    -106.50195907 Ry

     convergence has been achieved in   7 iterations

     Forces acting on atoms (cartesian axes, Ry/au):

     atom    1 type  2   force =     0.00000000    0.00341178   -0.00212898
     atom    2 type  2   force =     0.00000000   -0.00341176   -0.00212896
     atom    3 type  2   force =     0.00000000    0.00341180   -0.00212899
     atom    4 type  2   force =     0.00000000   -0.00341179   -0.00212895
     atom    5 type  2   force =     0.00000000    0.00674753   -0.00025095
     atom    6 type  2   force =     0.00000000   -0.00674752   -0.00025092
     atom    7 type  2   force =     0.00000000    0.00674753   -0.00025094
     atom    8 type  2   force =     0.00000000   -0.00674751   -0.00025091
     atom    9 type  1   force =     0.00000000   -0.00087633    0.00139579
     atom   10 type  1   force =     0.00000000    0.00087634    0.00139575
     atom   11 type  1   force =     0.00000000   -0.00087633    0.00139579
     atom   12 type  1   force =     0.00000000    0.00087633    0.00139576
     atom   13 type  1   force =     0.00000000    0.00119637    0.00026220
     atom   14 type  1   force =     0.00000000   -0.00119641    0.00026221
     atom   15 type  1   force =     0.00000000    0.00119636    0.00026220
     atom   16 type  1   force =     0.00000000   -0.00119638    0.00026220
     atom   17 type  1   force =     0.00184447   -0.00489257    0.00036097
     atom   18 type  1   force =    -0.00184446    0.00489257    0.00036096
     atom   19 type  1   force =     0.00184446    0.00489257    0.00036096
     atom   20 type  1   force =    -0.00184447   -0.00489257    0.00036097
     atom   21 type  1   force =     0.00184448   -0.00489258    0.00036097
     atom   22 type  1   force =    -0.00184447    0.00489257    0.00036096
     atom   23 type  1   force =     0.00184447    0.00489257    0.00036096
     atom   24 type  1   force =    -0.00184448   -0.00489258    0.00036097

     Total force =     0.021993     Total SCF correction =     0.000072


     Computing stress (Cartesian axis) and pressure

          total   stress  (Ry/bohr**3)                   (kbar)     P=      -13.16
  -0.00010018   0.00000000   0.00000000          -14.74        0.00        0.00
   0.00000000  -0.00008649   0.00000000            0.00      -12.72        0.00
   0.00000000   0.00000000  -0.00008165            0.00        0.00      -12.01

     Energy error            =      1.5E-03 Ry
     Gradient error          =      6.7E-03 Ry/Bohr

     number of scf cycles    =   5
     number of bfgs steps    =   4

     energy             old  =    -276.0119791529 Ry
     energy             new  =    -276.0134788899 Ry

     CASE: energy            _new < energy            _old

     new trust radius        =       0.0138950988 bohr
     new conv_thr            =       0.0000000067 Ry


ATOMIC_POSITIONS (crystal)
O                0.0000000000        0.6629915804        0.0606598513
O                0.0000000000        0.3370084253        0.5606598549
O                0.5000000000        0.1629915746        0.0606598597
O                0.5000000000        0.8370084235        0.5606598590
O                0.5000000000        0.8321486320        0.9353556813
O                0.5000000000        0.1678513683        0.4353556713
O                0.0000000000        0.3321486427        0.9353556698
O                0.0000000000        0.6678513576        0.4353556584
H                0.0000000000        0.6615799301        0.1947689694
H                0.0000000000        0.3384200787        0.6947689715
H                0.5000000000        0.1615799244        0.1947689765
H                0.5000000000        0.8384200767        0.6947689724
H                0.0000000000        0.5422648226        0.0217045181
H                0.0000000000        0.4577351825        0.5217045201
H                0.5000000000        0.0422648153        0.0217045284
H                0.5000000000        0.9577351835        0.5217045245
H                0.6738905776        0.7705245421        0.9827555050
H                0.3261094233        0.2294754537        0.4827555005
H                0.6738905767        0.2294754537        0.4827555005
H                0.3261094224        0.7705245421        0.9827555050
H                0.1738905781        0.2705245551        0.9827554945
H                0.8261094221        0.7294754401        0.4827554897
H                0.1738905779        0.7294754401        0.4827554897
H                0.8261094219        0.2705245551        0.9827554945



     Writing config-only to output data dir ./iceIh/iceIh.save/ :
     XML data file
     NEW-OLD atomic charge density approx. for the potential

     total cpu time spent up to now is      656.0 secs

     per-process dynamical memory:    68.7 Mb

     Self-consistent Calculation

     iteration #  1     ecut=    90.00 Ry     beta= 0.70
     Davidson diagonalization with overlap
     ethr =  1.00E-06,  avg # of iterations =  4.0

     negative rho (up, down):  3.453E-08 0.000E+00

     total cpu time spent up to now is      671.0 secs

     total energy              =    -276.01392671 Ry
     estimated scf accuracy    <       0.00017189 Ry

     iteration #  2     ecut=    90.00 Ry     beta= 0.70
     Davidson diagonalization with overlap
     ethr =  2.69E-07,  avg # of iterations =  2.0

     negative rho (up, down):  5.749E-08 0.000E+00

     total cpu time spent up to now is      681.3 secs

     total energy              =    -276.01395772 Ry
     estimated scf accuracy    <       0.00002984 Ry

     iteration #  3     ecut=    90.00 Ry     beta= 0.70
     Davidson diagonalization with overlap
     ethr =  4.66E-08,  avg # of iterations =  2.0

     negative rho (up, down):  6.975E-08 0.000E+00

     total cpu time spent up to now is      691.6 secs

     total energy              =    -276.01396444 Ry
     estimated scf accuracy    <       0.00000173 Ry

     iteration #  4     ecut=    90.00 Ry     beta= 0.70
     Davidson diagonalization with overlap
     ethr =  2.70E-09,  avg # of iterations =  2.0

     negative rho (up, down):  7.100E-08 0.000E+00

     total cpu time spent up to now is      700.8 secs

     total energy              =    -276.01396446 Ry
     estimated scf accuracy    <       0.00000039 Ry

     iteration #  5     ecut=    90.00 Ry     beta= 0.70
     Davidson diagonalization with overlap
     ethr =  6.16E-10,  avg # of iterations =  2.9

     negative rho (up, down):  7.169E-08 0.000E+00

     total cpu time spent up to now is      711.8 secs

     total energy              =    -276.01396458 Ry
     estimated scf accuracy    <       0.00000003 Ry

     iteration #  6     ecut=    90.00 Ry     beta= 0.70
     Davidson diagonalization with overlap
     ethr =  5.11E-11,  avg # of iterations =  2.0

     negative rho (up, down):  7.201E-08 0.000E+00

     total cpu time spent up to now is      721.0 secs

     End of self-consistent calculation

     Number of k-points >= 100: set verbosity='high' to print the bands.

     highest occupied level (ev):    -3.7500

!    total energy              =    -276.01396458 Ry
     estimated scf accuracy    <          5.6E-09 Ry

     The total energy is the sum of the following terms:
     one-electron contribution =    -243.56509315 Ry
     hartree contribution      =     141.75470083 Ry
     xc contribution           =     -67.59185864 Ry
     ewald contribution        =    -106.61171362 Ry

     convergence has been achieved in   6 iterations

     Forces acting on atoms (cartesian axes, Ry/au):

     atom    1 type  2   force =     0.00000000    0.00058818    0.00164150
     atom    2 type  2   force =     0.00000000   -0.00058818    0.00164149
     atom    3 type  2   force =     0.00000000    0.00058817    0.00164148
     atom    4 type  2   force =     0.00000000   -0.00058815    0.00164144
     atom    5 type  2   force =     0.00000000    0.00008799    0.00312237
     atom    6 type  2   force =     0.00000000   -0.00008800    0.00312237
     atom    7 type  2   force =     0.00000000    0.00008799    0.00312237
     atom    8 type  2   force =     0.00000000   -0.00008800    0.00312237
     atom    9 type  1   force =     0.00000000    0.00109503   -0.00070068
     atom   10 type  1   force =     0.00000000   -0.00109504   -0.00070067
     atom   11 type  1   force =     0.00000000    0.00109504   -0.00070067
     atom   12 type  1   force =     0.00000000   -0.00109504   -0.00070063
     atom   13 type  1   force =     0.00000000    0.00144252   -0.00126655
     atom   14 type  1   force =     0.00000000   -0.00144252   -0.00126655
     atom   15 type  1   force =     0.00000000    0.00144253   -0.00126655
     atom   16 type  1   force =     0.00000000   -0.00144255   -0.00126654
     atom   17 type  1   force =     0.00174677   -0.00117453   -0.00139832
     atom   18 type  1   force =    -0.00174678    0.00117454   -0.00139832
     atom   19 type  1   force =     0.00174678    0.00117454   -0.00139832
     atom   20 type  1   force =    -0.00174677   -0.00117453   -0.00139832
     atom   21 type  1   force =     0.00174677   -0.00117454   -0.00139832
     atom   22 type  1   force =    -0.00174677    0.00117455   -0.00139832
     atom   23 type  1   force =     0.00174677    0.00117455   -0.00139832
     atom   24 type  1   force =    -0.00174677   -0.00117454   -0.00139832

     Total force =     0.011126     Total SCF correction =     0.000063


     Computing stress (Cartesian axis) and pressure

          total   stress  (Ry/bohr**3)                   (kbar)     P=      -14.56
  -0.00010374   0.00000000   0.00000000          -15.26        0.00        0.00
   0.00000000  -0.00009723   0.00000000            0.00      -14.30        0.00
   0.00000000   0.00000000  -0.00009587            0.00        0.00      -14.10

     Energy error            =      4.9E-04 Ry
     Gradient error          =      3.1E-03 Ry/Bohr

     number of scf cycles    =   6
     number of bfgs steps    =   5

     energy             old  =    -276.0134788899 Ry
     energy             new  =    -276.0139645836 Ry

     CASE: energy            _new < energy            _old

     new trust radius        =       0.0045483222 bohr
     new conv_thr            =       0.0000000031 Ry


ATOMIC_POSITIONS (crystal)
O                0.0000000000        0.6631168227        0.0607222691
O                0.0000000000        0.3368831826        0.5607222723
O                0.5000000000        0.1631168168        0.0607222759
O                0.5000000000        0.8368831824        0.5607222730
O                0.5000000000        0.8322954896        0.9356379466
O                0.5000000000        0.1677045098        0.4356379376
O                0.0000000000        0.3322955003        0.9356379355
O                0.0000000000        0.6677044995        0.4356379250
H                0.0000000000        0.6615970413        0.1947022724
H                0.0000000000        0.3384029676        0.6947022750
H                0.5000000000        0.1615970360        0.1947022802
H                0.5000000000        0.8384029654        0.6947022784
H                0.0000000000        0.5424544248        0.0216677007
H                0.0000000000        0.4575455798        0.5216677026
H                0.5000000000        0.0424544182        0.0216677111
H                0.5000000000        0.9575455792        0.5216677076
H                0.6739544227        0.7703231221        0.9826349203
H                0.3260455779        0.2296768743        0.4826349158
H                0.6739544221        0.2296768743        0.4826349158
H                0.3260455773        0.7703231221        0.9826349203
H                0.1739544237        0.2703231344        0.9826349103
H                0.8260455764        0.7296768612        0.4826349051
H                0.1739544236        0.7296768612        0.4826349051
H                0.8260455763        0.2703231344        0.9826349103



     Writing config-only to output data dir ./iceIh/iceIh.save/ :
     XML data file
     NEW-OLD atomic charge density approx. for the potential

     negative rho (up, down):  6.594E-08 0.000E+00

     total cpu time spent up to now is      731.7 secs

     per-process dynamical memory:    68.7 Mb

     Self-consistent Calculation

     iteration #  1     ecut=    90.00 Ry     beta= 0.70
     Davidson diagonalization with overlap
     ethr =  1.00E-06,  avg # of iterations =  3.0

     Threshold (ethr) on eigenvalues was too large:
     Diagonalizing with lowered threshold

     Davidson diagonalization with overlap
     ethr =  1.74E-08,  avg # of iterations =  3.0

     negative rho (up, down):  7.696E-08 0.000E+00

     total cpu time spent up to now is      754.2 secs

     total energy              =    -276.01408046 Ry
     estimated scf accuracy    <       0.00001446 Ry

     iteration #  2     ecut=    90.00 Ry     beta= 0.70
     Davidson diagonalization with overlap
     ethr =  2.26E-08,  avg # of iterations =  2.0

     negative rho (up, down):  8.087E-08 0.000E+00

     total cpu time spent up to now is      762.7 secs

     total energy              =    -276.01408216 Ry
     estimated scf accuracy    <       0.00000053 Ry

     iteration #  3     ecut=    90.00 Ry     beta= 0.70
     Davidson diagonalization with overlap
     ethr =  8.20E-10,  avg # of iterations =  3.2

     negative rho (up, down):  8.131E-08 0.000E+00

     total cpu time spent up to now is      773.6 secs

     total energy              =    -276.01408229 Ry
     estimated scf accuracy    <       0.00000009 Ry

     iteration #  4     ecut=    90.00 Ry     beta= 0.70
     Davidson diagonalization with overlap
     ethr =  1.40E-10,  avg # of iterations =  3.0

     negative rho (up, down):  8.170E-08 0.000E+00

     total cpu time spent up to now is      784.9 secs

     total energy              =    -276.01408231 Ry
     estimated scf accuracy    <       0.00000002 Ry

     iteration #  5     ecut=    90.00 Ry     beta= 0.70
     Davidson diagonalization with overlap
     ethr =  3.47E-11,  avg # of iterations =  2.0

     negative rho (up, down):  8.179E-08 0.000E+00

     total cpu time spent up to now is      794.1 secs

     End of self-consistent calculation

     Number of k-points >= 100: set verbosity='high' to print the bands.

     highest occupied level (ev):    -3.7539

!    total energy              =    -276.01408231 Ry
     estimated scf accuracy    <          2.2E-09 Ry

     The total energy is the sum of the following terms:
     one-electron contribution =    -243.57302366 Ry
     hartree contribution      =     141.75825502 Ry
     xc contribution           =     -67.59231967 Ry
     ewald contribution        =    -106.60699400 Ry

     convergence has been achieved in   5 iterations

     Forces acting on atoms (cartesian axes, Ry/au):

     atom    1 type  2   force =     0.00000000    0.00083472    0.00021786
     atom    2 type  2   force =     0.00000000   -0.00083472    0.00021786
     atom    3 type  2   force =     0.00000000    0.00083472    0.00021787
     atom    4 type  2   force =     0.00000000   -0.00083474    0.00021789
     atom    5 type  2   force =     0.00000000   -0.00100564    0.00316593
     atom    6 type  2   force =     0.00000000    0.00100564    0.00316593
     atom    7 type  2   force =     0.00000000   -0.00100564    0.00316593
     atom    8 type  2   force =     0.00000000    0.00100564    0.00316594
     atom    9 type  1   force =     0.00000000    0.00110614    0.00066247
     atom   10 type  1   force =     0.00000000   -0.00110614    0.00066248
     atom   11 type  1   force =     0.00000000    0.00110614    0.00066246
     atom   12 type  1   force =     0.00000000   -0.00110615    0.00066245
     atom   13 type  1   force =     0.00000000    0.00086351   -0.00125483
     atom   14 type  1   force =     0.00000000   -0.00086351   -0.00125484
     atom   15 type  1   force =     0.00000000    0.00086350   -0.00125484
     atom   16 type  1   force =     0.00000000   -0.00086349   -0.00125485
     atom   17 type  1   force =     0.00114841   -0.00050843   -0.00139571
     atom   18 type  1   force =    -0.00114841    0.00050844   -0.00139571
     atom   19 type  1   force =     0.00114841    0.00050844   -0.00139571
     atom   20 type  1   force =    -0.00114841   -0.00050843   -0.00139571
     atom   21 type  1   force =     0.00114840   -0.00050844   -0.00139571
     atom   22 type  1   force =    -0.00114840    0.00050844   -0.00139571
     atom   23 type  1   force =     0.00114840    0.00050844   -0.00139571
     atom   24 type  1   force =    -0.00114840   -0.00050844   -0.00139571

     Total force =     0.009552     Total SCF correction =     0.000135


     Computing stress (Cartesian axis) and pressure

          total   stress  (Ry/bohr**3)                   (kbar)     P=      -14.55
  -0.00010774   0.00000000   0.00000000          -15.85        0.00        0.00
   0.00000000  -0.00009763  -0.00000000            0.00      -14.36       -0.00
   0.00000000  -0.00000000  -0.00009131            0.00       -0.00      -13.43

     Energy error            =      1.2E-04 Ry
     Gradient error          =      3.2E-03 Ry/Bohr

     number of scf cycles    =   7
     number of bfgs steps    =   6

     energy             old  =    -276.0139645836 Ry
     energy             new  =    -276.0140823138 Ry

     CASE: energy            _new < energy            _old

     new trust radius        =       0.0050031544 bohr
     new conv_thr            =       0.0000000012 Ry


ATOMIC_POSITIONS (crystal)
O                0.0000000000        0.6632617977        0.0607442273
O                0.0000000000        0.3367382073        0.5607442306
O                0.5000000000        0.1632617923        0.0607442340
O                0.5000000000        0.8367382063        0.5607442321
O                0.5000000000        0.8323737283        0.9359829459
O                0.5000000000        0.1676262707        0.4359829383
O                0.0000000000        0.3323737386        0.9359829354
O                0.0000000000        0.6676262608        0.4359829260
H                0.0000000000        0.6616549171        0.1947133353
H                0.0000000000        0.3383450915        0.6947133380
H                0.5000000000        0.1616549124        0.1947133426
H                0.5000000000        0.8383450890        0.6947133406
H                0.0000000000        0.5426266917        0.0215845186
H                0.0000000000        0.4573733124        0.5215845202
H                0.5000000000        0.0426266852        0.0215845287
H                0.5000000000        0.9573733124        0.5215845251
H                0.6740905665        0.7701420318        0.9824875007
H                0.3259094342        0.2298579651        0.4824874961
H                0.6740905658        0.2298579651        0.4824874961
H                0.3259094335        0.7701420318        0.9824875007
H                0.1740905673        0.2701420434        0.9824874912
H                0.8259094329        0.7298579528        0.4824874858
H                0.1740905671        0.7298579528        0.4824874858
H                0.8259094327        0.2701420434        0.9824874912



     Writing config-only to output data dir ./iceIh/iceIh.save/ :
     XML data file
     NEW-OLD atomic charge density approx. for the potential

     negative rho (up, down):  7.576E-08 0.000E+00

     total cpu time spent up to now is      804.3 secs

     per-process dynamical memory:    68.7 Mb

     Self-consistent Calculation

     iteration #  1     ecut=    90.00 Ry     beta= 0.70
     Davidson diagonalization with overlap
     ethr =  1.00E-06,  avg # of iterations =  3.0

     Threshold (ethr) on eigenvalues was too large:
     Diagonalizing with lowered threshold

     Davidson diagonalization with overlap
     ethr =  2.09E-08,  avg # of iterations =  3.0

     negative rho (up, down):  7.880E-08 0.000E+00

     total cpu time spent up to now is      826.5 secs

     total energy              =    -276.01419287 Ry
     estimated scf accuracy    <       0.00001644 Ry

     iteration #  2     ecut=    90.00 Ry     beta= 0.70
     Davidson diagonalization with overlap
     ethr =  2.57E-08,  avg # of iterations =  2.0

     negative rho (up, down):  7.953E-08 0.000E+00

     total cpu time spent up to now is      835.9 secs

     total energy              =    -276.01419502 Ry
     estimated scf accuracy    <       0.00000174 Ry

     iteration #  3     ecut=    90.00 Ry     beta= 0.70
     Davidson diagonalization with overlap
     ethr =  2.71E-09,  avg # of iterations =  3.0

     negative rho (up, down):  8.005E-08 0.000E+00

     total cpu time spent up to now is      847.5 secs

     total energy              =    -276.01419547 Ry
     estimated scf accuracy    <       0.00000060 Ry

     iteration #  4     ecut=    90.00 Ry     beta= 0.70
     Davidson diagonalization with overlap
     ethr =  9.33E-10,  avg # of iterations =  2.3

     negative rho (up, down):  8.034E-08 0.000E+00

     total cpu time spent up to now is      856.9 secs

     total energy              =    -276.01419557 Ry
     estimated scf accuracy    <       0.00000002 Ry

     iteration #  5     ecut=    90.00 Ry     beta= 0.70
     Davidson diagonalization with overlap
     ethr =  2.62E-11,  avg # of iterations =  5.7

     negative rho (up, down):  8.033E-08 0.000E+00

     total cpu time spent up to now is      872.9 secs

     total energy              =    -276.01419558 Ry
     estimated scf accuracy    <       0.00000004 Ry

     iteration #  6     ecut=    90.00 Ry     beta= 0.70
     Davidson diagonalization with overlap
     ethr =  2.62E-11,  avg # of iterations =  3.0

     negative rho (up, down):  8.032E-08 0.000E+00

     total cpu time spent up to now is      884.7 secs

     End of self-consistent calculation

     Number of k-points >= 100: set verbosity='high' to print the bands.

     highest occupied level (ev):    -3.7565

!    total energy              =    -276.01419559 Ry
     estimated scf accuracy    <          2.2E-10 Ry

     The total energy is the sum of the following terms:
     one-electron contribution =    -243.56226464 Ry
     hartree contribution      =     141.75374085 Ry
     xc contribution           =     -67.59104094 Ry
     ewald contribution        =    -106.61463086 Ry

     convergence has been achieved in   6 iterations

     Forces acting on atoms (cartesian axes, Ry/au):

     atom    1 type  2   force =     0.00000000    0.00074239   -0.00005482
     atom    2 type  2   force =     0.00000000   -0.00074239   -0.00005482
     atom    3 type  2   force =     0.00000000    0.00074239   -0.00005482
     atom    4 type  2   force =     0.00000000   -0.00074239   -0.00005481
     atom    5 type  2   force =     0.00000000   -0.00130972    0.00260569
     atom    6 type  2   force =     0.00000000    0.00130972    0.00260569
     atom    7 type  2   force =     0.00000000   -0.00130973    0.00260569
     atom    8 type  2   force =     0.00000000    0.00130973    0.00260569
     atom    9 type  1   force =     0.00000000    0.00105961    0.00072335
     atom   10 type  1   force =     0.00000000   -0.00105962    0.00072335
     atom   11 type  1   force =     0.00000000    0.00105962    0.00072334
     atom   12 type  1   force =     0.00000000   -0.00105962    0.00072334
     atom   13 type  1   force =     0.00000000    0.00069848   -0.00104215
     atom   14 type  1   force =     0.00000000   -0.00069848   -0.00104216
     atom   15 type  1   force =     0.00000000    0.00069848   -0.00104216
     atom   16 type  1   force =     0.00000000   -0.00069848   -0.00104216
     atom   17 type  1   force =     0.00071848   -0.00022709   -0.00111603
     atom   18 type  1   force =    -0.00071848    0.00022709   -0.00111603
     atom   19 type  1   force =     0.00071848    0.00022709   -0.00111603
     atom   20 type  1   force =    -0.00071848   -0.00022709   -0.00111603
     atom   21 type  1   force =     0.00071847   -0.00022709   -0.00111603
     atom   22 type  1   force =    -0.00071848    0.00022710   -0.00111603
     atom   23 type  1   force =     0.00071848    0.00022710   -0.00111603
     atom   24 type  1   force =    -0.00071847   -0.00022709   -0.00111603

     Total force =     0.007976     Total SCF correction =     0.000031


     Computing stress (Cartesian axis) and pressure

          total   stress  (Ry/bohr**3)                   (kbar)     P=      -14.75
  -0.00010995   0.00000000   0.00000000          -16.17        0.00        0.00
   0.00000000  -0.00009839  -0.00000000            0.00      -14.47       -0.00
   0.00000000  -0.00000000  -0.00009245            0.00       -0.00      -13.60

     Energy error            =      1.1E-04 Ry
     Gradient error          =      2.6E-03 Ry/Bohr

     number of scf cycles    =   8
     number of bfgs steps    =   7

     energy             old  =    -276.0140823138 Ry
     energy             new  =    -276.0141955860 Ry

     CASE: energy            _new < energy            _old

     new trust radius        =       0.0075047316 bohr
     new conv_thr            =       0.0000000011 Ry


ATOMIC_POSITIONS (crystal)
O                0.0000000000        0.6634782078        0.0607709113
O                0.0000000000        0.3365217967        0.5607709145
O                0.5000000000        0.1634782026        0.0607709171
O                0.5000000000        0.8365217969        0.5607709140
O                0.5000000000        0.8324245860        0.9365125426
O                0.5000000000        0.1675754121        0.4365125369
O                0.0000000000        0.3324245959        0.9365125331
O                0.0000000000        0.6675754029        0.4365125251
H                0.0000000000        0.6617821597        0.1947508939
H                0.0000000000        0.3382178482        0.6947508971
H                0.5000000000        0.1617821561        0.1947509009
H                0.5000000000        0.8382178452        0.6947509007
H                0.0000000000        0.5428843775        0.0214353575
H                0.0000000000        0.4571156260        0.5214353584
H                0.5000000000        0.0428843717        0.0214353673
H                0.5000000000        0.9571156247        0.5214353639
H                0.6743220235        0.7698936102        0.9822651608
H                0.3256779770        0.2301063877        0.4822651563
H                0.6743220230        0.2301063877        0.4822651563
H                0.3256779765        0.7698936102        0.9822651608
H                0.1743220235        0.2698936206        0.9822651522
H                0.8256779766        0.7301063765        0.4822651466
H                0.1743220234        0.7301063765        0.4822651466
H                0.8256779765        0.2698936206        0.9822651522



     Writing config-only to output data dir ./iceIh/iceIh.save/ :
     XML data file
     NEW-OLD atomic charge density approx. for the potential

     negative rho (up, down):  7.331E-08 0.000E+00

     total cpu time spent up to now is      895.0 secs

     per-process dynamical memory:    68.7 Mb

     Self-consistent Calculation

     iteration #  1     ecut=    90.00 Ry     beta= 0.70
     Davidson diagonalization with overlap
     ethr =  1.00E-06,  avg # of iterations =  3.0

     Threshold (ethr) on eigenvalues was too large:
     Diagonalizing with lowered threshold

     Davidson diagonalization with overlap
     ethr =  5.57E-08,  avg # of iterations =  2.1

     negative rho (up, down):  6.760E-08 0.000E+00

     total cpu time spent up to now is      916.5 secs

     total energy              =    -276.01430960 Ry
     estimated scf accuracy    <       0.00003915 Ry

     iteration #  2     ecut=    90.00 Ry     beta= 0.70
     Davidson diagonalization with overlap
     ethr =  6.12E-08,  avg # of iterations =  2.0

     negative rho (up, down):  6.552E-08 0.000E+00

     total cpu time spent up to now is      926.2 secs

     total energy              =    -276.01431528 Ry
     estimated scf accuracy    <       0.00000714 Ry

     iteration #  3     ecut=    90.00 Ry     beta= 0.70
     Davidson diagonalization with overlap
     ethr =  1.12E-08,  avg # of iterations =  2.5

     negative rho (up, down):  6.503E-08 0.000E+00

     total cpu time spent up to now is      937.1 secs

     total energy              =    -276.01431728 Ry
     estimated scf accuracy    <       0.00000091 Ry

     iteration #  4     ecut=    90.00 Ry     beta= 0.70
     Davidson diagonalization with overlap
     ethr =  1.42E-09,  avg # of iterations =  2.1

     negative rho (up, down):  6.495E-08 0.000E+00

     total cpu time spent up to now is      945.6 secs

     total energy              =    -276.01431733 Ry
     estimated scf accuracy    <       0.00000007 Ry

     iteration #  5     ecut=    90.00 Ry     beta= 0.70
     Davidson diagonalization with overlap
     ethr =  1.12E-10,  avg # of iterations =  4.1

     negative rho (up, down):  6.489E-08 0.000E+00

     total cpu time spent up to now is      958.9 secs

     total energy              =    -276.01431736 Ry
     estimated scf accuracy    <       0.00000008 Ry

     iteration #  6     ecut=    90.00 Ry     beta= 0.70
     Davidson diagonalization with overlap
     ethr =  1.12E-10,  avg # of iterations =  2.9

     negative rho (up, down):  6.485E-08 0.000E+00

     total cpu time spent up to now is      969.4 secs

     End of self-consistent calculation

     Number of k-points >= 100: set verbosity='high' to print the bands.

     highest occupied level (ev):    -3.7601

!    total energy              =    -276.01431737 Ry
     estimated scf accuracy    <          6.4E-10 Ry

     The total energy is the sum of the following terms:
     one-electron contribution =    -243.55316917 Ry
     hartree contribution      =     141.75064233 Ry
     xc contribution           =     -67.58992691 Ry
     ewald contribution        =    -106.62186363 Ry

     convergence has been achieved in   6 iterations

     Forces acting on atoms (cartesian axes, Ry/au):

     atom    1 type  2   force =     0.00000000    0.00056740   -0.00022999
     atom    2 type  2   force =     0.00000000   -0.00056741   -0.00022999
     atom    3 type  2   force =     0.00000000    0.00056741   -0.00022998
     atom    4 type  2   force =     0.00000000   -0.00056744   -0.00022993
     atom    5 type  2   force =     0.00000000   -0.00118991    0.00136658
     atom    6 type  2   force =     0.00000000    0.00118991    0.00136659
     atom    7 type  2   force =     0.00000000   -0.00118991    0.00136659
     atom    8 type  2   force =     0.00000000    0.00118991    0.00136659
     atom    9 type  1   force =     0.00000000    0.00090236    0.00051410
     atom   10 type  1   force =     0.00000000   -0.00090237    0.00051410
     atom   11 type  1   force =     0.00000000    0.00090237    0.00051409
     atom   12 type  1   force =     0.00000000   -0.00090237    0.00051406
     atom   13 type  1   force =     0.00000000    0.00053376   -0.00060671
     atom   14 type  1   force =     0.00000000   -0.00053375   -0.00060671
     atom   15 type  1   force =     0.00000000    0.00053375   -0.00060671
     atom   16 type  1   force =     0.00000000   -0.00053372   -0.00060672
     atom   17 type  1   force =     0.00024317   -0.00009052   -0.00052200
     atom   18 type  1   force =    -0.00024316    0.00009052   -0.00052200
     atom   19 type  1   force =     0.00024316    0.00009052   -0.00052200
     atom   20 type  1   force =    -0.00024317   -0.00009052   -0.00052200
     atom   21 type  1   force =     0.00024316   -0.00009052   -0.00052199
     atom   22 type  1   force =    -0.00024316    0.00009052   -0.00052199
     atom   23 type  1   force =     0.00024316    0.00009052   -0.00052199
     atom   24 type  1   force =    -0.00024316   -0.00009052   -0.00052199

     Total force =     0.004927     Total SCF correction =     0.000045


     Computing stress (Cartesian axis) and pressure

          total   stress  (Ry/bohr**3)                   (kbar)     P=      -14.96
  -0.00011137   0.00000000   0.00000000          -16.38        0.00        0.00
   0.00000000  -0.00009863  -0.00000000            0.00      -14.51       -0.00
   0.00000000  -0.00000000  -0.00009506            0.00       -0.00      -13.98

     Energy error            =      1.2E-04 Ry
     Gradient error          =      1.4E-03 Ry/Bohr

     number of scf cycles    =   9
     number of bfgs steps    =   8

     energy             old  =    -276.0141955860 Ry
     energy             new  =    -276.0143173741 Ry

     CASE: energy            _new < energy            _old

     new trust radius        =       0.0084706396 bohr
     new conv_thr            =       0.0000000012 Ry


ATOMIC_POSITIONS (crystal)
O                0.0000000000        0.6637450311        0.0607899526
O                0.0000000000        0.3362549727        0.5607899563
O                0.5000000000        0.1637450272        0.0607899589
O                0.5000000000        0.8362549694        0.5607899606
O                0.5000000000        0.8324171355        0.9371133620
O                0.5000000000        0.1675828627        0.4371133587
O                0.0000000000        0.3324171443        0.9371133541
O                0.0000000000        0.6675828541        0.4371133478
H                0.0000000000        0.6619850107        0.1948050869
H                0.0000000000        0.3380149961        0.6948050901
H                0.5000000000        0.1619850087        0.1948050923
H                0.5000000000        0.8380149925        0.6948050896
H                0.0000000000        0.5432017472        0.0212468888
H                0.0000000000        0.4567982555        0.5212468887
H                0.5000000000        0.0432017417        0.0212468976
H                0.5000000000        0.9567982571        0.5212468934
H                0.6745948189        0.7696109680        0.9820223673
H                0.3254051822        0.2303890307        0.4820223628
H                0.6745948178        0.2303890307        0.4820223628
H                0.3254051811        0.7696109680        0.9820223673
H                0.1745948176        0.2696109768        0.9820223598
H                0.8254051826        0.7303890213        0.4820223540
H                0.1745948174        0.7303890213        0.4820223540
H                0.8254051824        0.2696109768        0.9820223598



     Writing config-only to output data dir ./iceIh/iceIh.save/ :
     XML data file
     NEW-OLD atomic charge density approx. for the potential

     negative rho (up, down):  5.916E-08 0.000E+00

     total cpu time spent up to now is      979.7 secs

     per-process dynamical memory:    68.7 Mb

     Self-consistent Calculation

     iteration #  1     ecut=    90.00 Ry     beta= 0.70
     Davidson diagonalization with overlap
     ethr =  1.00E-06,  avg # of iterations =  3.1

     Threshold (ethr) on eigenvalues was too large:
     Diagonalizing with lowered threshold

     Davidson diagonalization with overlap
     ethr =  7.92E-08,  avg # of iterations =  2.0

     negative rho (up, down):  4.511E-08 0.000E+00

     total cpu time spent up to now is     1001.7 secs

     total energy              =    -276.01436209 Ry
     estimated scf accuracy    <       0.00005500 Ry

     iteration #  2     ecut=    90.00 Ry     beta= 0.70
     Davidson diagonalization with overlap
     ethr =  8.59E-08,  avg # of iterations =  2.6

     negative rho (up, down):  4.796E-08 0.000E+00

     total cpu time spent up to now is     1012.0 secs

     total energy              =    -276.01437032 Ry
     estimated scf accuracy    <       0.00001301 Ry

     iteration #  3     ecut=    90.00 Ry     beta= 0.70
     Davidson diagonalization with overlap
     ethr =  2.03E-08,  avg # of iterations =  2.7

     negative rho (up, down):  5.069E-08 0.000E+00

     total cpu time spent up to now is     1023.2 secs

     total energy              =    -276.01437397 Ry
     estimated scf accuracy    <       0.00000121 Ry

     iteration #  4     ecut=    90.00 Ry     beta= 0.70
     Davidson diagonalization with overlap
     ethr =  1.89E-09,  avg # of iterations =  1.8

     negative rho (up, down):  5.170E-08 0.000E+00

     total cpu time spent up to now is     1031.4 secs

     total energy              =    -276.01437401 Ry
     estimated scf accuracy    <       0.00000014 Ry

     iteration #  5     ecut=    90.00 Ry     beta= 0.70
     Davidson diagonalization with overlap
     ethr =  2.26E-10,  avg # of iterations =  3.5

     negative rho (up, down):  5.164E-08 0.000E+00

     total cpu time spent up to now is     1043.7 secs

     total energy              =    -276.01437406 Ry
     estimated scf accuracy    <       0.00000010 Ry

     iteration #  6     ecut=    90.00 Ry     beta= 0.70
     Davidson diagonalization with overlap
     ethr =  1.59E-10,  avg # of iterations =  2.8

     negative rho (up, down):  5.160E-08 0.000E+00

     total cpu time spent up to now is     1053.8 secs

     End of self-consistent calculation

     Number of k-points >= 100: set verbosity='high' to print the bands.

     highest occupied level (ev):    -3.7642

!    total energy              =    -276.01437409 Ry
     estimated scf accuracy    <          3.5E-10 Ry

     The total energy is the sum of the following terms:
     one-electron contribution =    -243.54578817 Ry
     hartree contribution      =     141.74864305 Ry
     xc contribution           =     -67.58902118 Ry
     ewald contribution        =    -106.62820778 Ry

     convergence has been achieved in   6 iterations

     Forces acting on atoms (cartesian axes, Ry/au):

     atom    1 type  2   force =     0.00000000    0.00037414   -0.00022063
     atom    2 type  2   force =     0.00000000   -0.00037414   -0.00022063
     atom    3 type  2   force =     0.00000000    0.00037413   -0.00022064
     atom    4 type  2   force =     0.00000000   -0.00037408   -0.00022071
     atom    5 type  2   force =     0.00000000   -0.00069193   -0.00022939
     atom    6 type  2   force =     0.00000000    0.00069193   -0.00022940
     atom    7 type  2   force =     0.00000000   -0.00069194   -0.00022940
     atom    8 type  2   force =     0.00000000    0.00069194   -0.00022940
     atom    9 type  1   force =     0.00000000    0.00065227    0.00003118
     atom   10 type  1   force =     0.00000000   -0.00065228    0.00003119
     atom   11 type  1   force =     0.00000000    0.00065228    0.00003119
     atom   12 type  1   force =     0.00000000   -0.00065228    0.00003124
     atom   13 type  1   force =     0.00000000    0.00036979   -0.00003831
     atom   14 type  1   force =     0.00000000   -0.00036979   -0.00003831
     atom   15 type  1   force =     0.00000000    0.00036980   -0.00003831
     atom   16 type  1   force =     0.00000000   -0.00036984   -0.00003830
     atom   17 type  1   force =    -0.00017722   -0.00009719    0.00022857
     atom   18 type  1   force =     0.00017721    0.00009719    0.00022858
     atom   19 type  1   force =    -0.00017721    0.00009719    0.00022858
     atom   20 type  1   force =     0.00017722   -0.00009719    0.00022857
     atom   21 type  1   force =    -0.00017721   -0.00009719    0.00022858
     atom   22 type  1   force =     0.00017721    0.00009719    0.00022858
     atom   23 type  1   force =    -0.00017721    0.00009719    0.00022858
     atom   24 type  1   force =     0.00017721   -0.00009719    0.00022858

     Total force =     0.002426     Total SCF correction =     0.000034


     Computing stress (Cartesian axis) and pressure

          total   stress  (Ry/bohr**3)                   (kbar)     P=      -15.16
  -0.00011164   0.00000000   0.00000000          -16.42        0.00        0.00
   0.00000000  -0.00009842   0.00000000            0.00      -14.48        0.00
   0.00000000   0.00000000  -0.00009906            0.00        0.00      -14.57

     Energy error            =      5.7E-05 Ry
     Gradient error          =      6.9E-04 Ry/Bohr

     bfgs converged in  10 scf cycles and   9 bfgs steps
     (criteria: energy <  1.0E-04 Ry, force <  1.0E-03 Ry/Bohr)

     End of BFGS Geometry Optimization

     Final energy             =    -276.0143740871 Ry

     File ./iceIh/iceIh.bfgs deleted, as requested
Begin final coordinates

ATOMIC_POSITIONS (crystal)
O                0.0000000000        0.6637450311        0.0607899526
O                0.0000000000        0.3362549727        0.5607899563
O                0.5000000000        0.1637450272        0.0607899589
O                0.5000000000        0.8362549694        0.5607899606
O                0.5000000000        0.8324171355        0.9371133620
O                0.5000000000        0.1675828627        0.4371133587
O                0.0000000000        0.3324171443        0.9371133541
O                0.0000000000        0.6675828541        0.4371133478
H                0.0000000000        0.6619850107        0.1948050869
H                0.0000000000        0.3380149961        0.6948050901
H                0.5000000000        0.1619850087        0.1948050923
H                0.5000000000        0.8380149925        0.6948050896
H                0.0000000000        0.5432017472        0.0212468888
H                0.0000000000        0.4567982555        0.5212468887
H                0.5000000000        0.0432017417        0.0212468976
H                0.5000000000        0.9567982571        0.5212468934
H                0.6745948189        0.7696109680        0.9820223673
H                0.3254051822        0.2303890307        0.4820223628
H                0.6745948178        0.2303890307        0.4820223628
H                0.3254051811        0.7696109680        0.9820223673
H                0.1745948176        0.2696109768        0.9820223598
H                0.8254051826        0.7303890213        0.4820223540
H                0.1745948174        0.7303890213        0.4820223540
H                0.8254051824        0.2696109768        0.9820223598
End final coordinates



     Writing all to output data dir ./iceIh/iceIh.save/ :
     XML data file, charge density, pseudopotentials, collected wavefunctions

     init_run     :      4.90s CPU      5.01s WALL (       1 calls)
     electrons    :    942.57s CPU    956.73s WALL (      10 calls)
     update_pot   :      0.14s CPU      0.14s WALL (       9 calls)
     forces       :      6.18s CPU      6.21s WALL (      10 calls)
     stress       :     93.70s CPU     93.78s WALL (      10 calls)

     Called by init_run:
     wfcinit      :      4.29s CPU      4.37s WALL (       1 calls)
     potinit      :      0.03s CPU      0.04s WALL (       1 calls)
     hinit0       :      0.48s CPU      0.48s WALL (       1 calls)

     Called by electrons:
     c_bands      :    841.65s CPU    853.63s WALL (      85 calls)
     sum_band     :     99.34s CPU    100.35s WALL (      85 calls)
     v_of_rho     :      1.06s CPU      1.07s WALL (      91 calls)
     newd         :      0.21s CPU      0.22s WALL (      91 calls)
     mix_rho      :      0.19s CPU      0.19s WALL (      85 calls)

     Called by c_bands:
     init_us_2    :     12.84s CPU     13.22s WALL (   21965 calls)
     cegterg      :    806.61s CPU    813.26s WALL (    9775 calls)

     Called by *egterg:
     cdiaghg      :     64.45s CPU     64.69s WALL (   37248 calls)
     h_psi        :    608.63s CPU    614.59s WALL (   38858 calls)
     s_psi        :     25.23s CPU     25.36s WALL (   38858 calls)
     g_psi        :      2.30s CPU      2.31s WALL (   28968 calls)

     Called by h_psi:
     h_psi:calbec :     43.09s CPU     43.46s WALL (   38858 calls)
     vloc_psi     :    533.88s CPU    539.19s WALL (   38858 calls)
     add_vuspsi   :     26.67s CPU     26.87s WALL (   38858 calls)

     General routines
     calbec       :     57.37s CPU     57.88s WALL (   54383 calls)
     fft          :      1.02s CPU      1.03s WALL (    1094 calls)
     ffts         :      0.05s CPU      0.05s WALL (      85 calls)
     fftw         :    556.80s CPU    562.11s WALL ( 2280730 calls)

     Parallel routines

     PWSCF        :  17m30.85s CPU  17m54.68s WALL


   This run was terminated on:  15: 6:47   1Apr2026            

=------------------------------------------------------------------------------=
   JOB DONE.
=------------------------------------------------------------------------------=
