
     Program PWSCF v.7.3.1 starts on 21Mar2026 at 20:25:24 

     This program is part of the open-source Quantum ESPRESSO suite
     for quantum simulation of materials; please cite
         "P. Giannozzi et al., J. Phys.:Condens. Matter 21 395502 (2009);
         "P. Giannozzi et al., J. Phys.:Condens. Matter 29 465901 (2017);
         "P. Giannozzi et al., J. Chem. Phys. 152 154105 (2020);
          URL http://www.quantum-espresso.org", 
     in publications or presentations arising from this work. More details at
     http://www.quantum-espresso.org/quote

     Parallel version (MPI), running on   128 processors

     MPI processes distributed on     1 nodes
     236787 MiB available memory on the printing compute node when the environment starts

     Waiting for input...
     Reading input from standard input

     Current dimensions of program PWSCF are:
     Max number of different atomic species (ntypx) = 10
     Max number of k-points (npk) =  40000
     Max angular momentum in pseudopotentials (lmaxx) =  4
     Found identity + ( -0.5000 -0.5000  0.0000) symmetry
     This is a supercell, fractional translations are disabled

     K-points division:     npool     =       4
     R & G space division:  proc/nbgrp/npool/nimage =      32
     Subspace diagonalization in iterative solution of the eigenvalue problem:
     a serial algorithm will be used


     Parallelization info
     --------------------
     sticks:   dense  smooth     PW     G-vecs:    dense   smooth      PW
     Min         116     116     32                 6638     6638     960
     Max         117     117     33                 6643     6643     965
     Sum        3743    3743   1025               212551   212551   30773

     Using Slab Decomposition



     bravais-lattice index     =            8
     lattice parameter (alat)  =       8.6777  a.u.
     unit-cell volume          =    1842.3460 (a.u.)^3
     number of atoms/cell      =           24
     number of atomic types    =            2
     number of electrons       =        64.00
     number of Kohn-Sham states=           32
     kinetic-energy cutoff     =      90.0000  Ry
     charge density cutoff     =     360.0000  Ry
     scf convergence threshold =      1.0E-07
     mixing beta               =       0.7000
     number of iterations used =            8  plain     mixing
     Exchange-correlation=  SLA  PW   PBE  PBE
                           (   1   4   3   4   0   0   0)

     celldm(1)=   8.677697  celldm(2)=   1.732119  celldm(3)=   1.627721
     celldm(4)=   0.000000  celldm(5)=   0.000000  celldm(6)=   0.000000

     crystal axes: (cart. coord. in units of alat)
               a(1) = (   1.000000   0.000000   0.000000 )  
               a(2) = (   0.000000   1.732119   0.000000 )  
               a(3) = (   0.000000   0.000000   1.627721 )  

     reciprocal axes: (cart. coord. in units 2 pi/alat)
               b(1) = (  1.000000  0.000000  0.000000 )  
               b(2) = (  0.000000  0.577328  0.000000 )  
               b(3) = (  0.000000  0.000000  0.614356 )  


     PseudoPot. # 1 for H  read from file:
     ./H.pbe-van_ak.UPF
     MD5 check sum: 077eb6d537518a38cb46c6de387227b7
     Pseudo is Ultrasoft, Zval =  1.0
     Generated by new atomic code, or converted to UPF format
     Using radial grid of  615 points,  1 beta functions with: 
                l(1) =   0
     Q(r) pseudized with  8 coefficients,  rinner =    0.800

     PseudoPot. # 2 for O  read from file:
     ./O.pbe-van_ak.UPF
     MD5 check sum: 78c19812648e8988a0fe644b0f25305e
     Pseudo is Ultrasoft, Zval =  6.0
     Generated by new atomic code, or converted to UPF format
     Using radial grid of  737 points,  4 beta functions with: 
                l(1) =   0
                l(2) =   0
                l(3) =   1
                l(4) =   1
     Q(r) pseudized with  8 coefficients,  rinner =    0.800   0.800   0.800


     atomic species   valence    mass     pseudopotential
     H                 1.00     1.00800     H ( 1.00)
     O                 6.00    16.00000     O ( 1.00)

      2 Sym. Ops. (no inversion) found



   Cartesian axes

     site n.     atom                  positions (alat units)
         1        O      tau(   1) = (   0.0000000   1.1515127   0.1027092  )
         2        O      tau(   2) = (   0.0000000   0.5806063   0.9165697  )
         3        O      tau(   3) = (   0.5000000   0.2854532   0.1027092  )
         4        O      tau(   4) = (   0.5000000   1.4466659   0.9165697  )
         5        O      tau(   5) = (   0.5000000   1.4298643   1.5250118  )
         6        O      tau(   6) = (   0.5000000   0.3022548   0.7111513  )
         7        O      tau(   7) = (   0.0000000   0.5638048   1.5250118  )
         8        O      tau(   8) = (   0.0000000   1.1683143   0.7111513  )
         9        H      tau(   9) = (   0.0000000   1.1494343   0.3195216  )
        10        H      tau(  10) = (   0.0000000   0.5826848   1.1333822  )
        11        H      tau(  11) = (   0.5000000   0.2833747   0.3195216  )
        12        H      tau(  12) = (   0.5000000   1.4487443   1.1333822  )
        13        H      tau(  13) = (   0.0000000   0.9289355   0.0297873  )
        14        H      tau(  14) = (   0.0000000   0.8031836   0.8436478  )
        15        H      tau(  15) = (   0.5000000   0.0628759   0.0297873  )
        16        H      tau(  16) = (   0.5000000   1.6692431   0.8436478  )
        17        H      tau(  17) = (   0.6766000   1.3420459   1.5979337  )
        18        H      tau(  18) = (   0.3234000   0.3900732   0.7840732  )
        19        H      tau(  19) = (   0.6766000   0.3900732   0.7840732  )
        20        H      tau(  20) = (   0.3234000   1.3420459   1.5979337  )
        21        H      tau(  21) = (   0.1766000   0.4759863   1.5979337  )
        22        H      tau(  22) = (   0.8234000   1.2561327   0.7840732  )
        23        H      tau(  23) = (   0.1766000   1.2561327   0.7840732  )
        24        H      tau(  24) = (   0.8234000   0.4759863   1.5979337  )

     number of k points=   460

     Number of k-points >= 100: set verbosity='high' to print them.

     Dense  grid:   212551 G-vectors     FFT dimensions: (  54,  96,  90)

     Estimated max dynamical RAM per process >      55.59 MB

     Estimated total dynamical RAM >       6.80 GB

     Initial potential from superposition of free atoms

     starting charge      63.9998, renormalised to      64.0000
     Starting wfcs are   48 randomized atomic wfcs

     total cpu time spent up to now is        5.2 secs

     per-process dynamical memory:    63.7 Mb

     Self-consistent Calculation

     iteration #  1     ecut=    90.00 Ry     beta= 0.70
     Davidson diagonalization with overlap
     ethr =  1.00E-02,  avg # of iterations =  2.0

     total cpu time spent up to now is       14.9 secs

     total energy              =    -274.81218928 Ry
     estimated scf accuracy    <       2.73402182 Ry

     iteration #  2     ecut=    90.00 Ry     beta= 0.70
     Davidson diagonalization with overlap
     ethr =  4.27E-03,  avg # of iterations =  3.0

     total cpu time spent up to now is       27.5 secs

     total energy              =    -275.65515346 Ry
     estimated scf accuracy    <       1.79328123 Ry

     iteration #  3     ecut=    90.00 Ry     beta= 0.70
     Davidson diagonalization with overlap
     ethr =  2.80E-03,  avg # of iterations =  2.0

     total cpu time spent up to now is       37.2 secs

     total energy              =    -275.90145002 Ry
     estimated scf accuracy    <       0.06892561 Ry

     iteration #  4     ecut=    90.00 Ry     beta= 0.70
     Davidson diagonalization with overlap
     ethr =  1.08E-04,  avg # of iterations =  4.0

     total cpu time spent up to now is       51.6 secs

     total energy              =    -275.95581231 Ry
     estimated scf accuracy    <       0.08559159 Ry

     iteration #  5     ecut=    90.00 Ry     beta= 0.70
     Davidson diagonalization with overlap
     ethr =  1.08E-04,  avg # of iterations =  2.0

     total cpu time spent up to now is       59.9 secs

     total energy              =    -275.95821645 Ry
     estimated scf accuracy    <       0.01287743 Ry

     iteration #  6     ecut=    90.00 Ry     beta= 0.70
     Davidson diagonalization with overlap
     ethr =  2.01E-05,  avg # of iterations =  2.0

     total cpu time spent up to now is       69.4 secs

     total energy              =    -275.95916361 Ry
     estimated scf accuracy    <       0.00205370 Ry

     iteration #  7     ecut=    90.00 Ry     beta= 0.70
     Davidson diagonalization with overlap
     ethr =  3.21E-06,  avg # of iterations =  3.0

     total cpu time spent up to now is       81.0 secs

     total energy              =    -275.96050794 Ry
     estimated scf accuracy    <       0.00047328 Ry

     iteration #  8     ecut=    90.00 Ry     beta= 0.70
     Davidson diagonalization with overlap
     ethr =  7.40E-07,  avg # of iterations =  2.0

     total cpu time spent up to now is       90.5 secs

     total energy              =    -275.96019454 Ry
     estimated scf accuracy    <       0.00118241 Ry

     iteration #  9     ecut=    90.00 Ry     beta= 0.70
     Davidson diagonalization with overlap
     ethr =  7.40E-07,  avg # of iterations =  2.0

     total cpu time spent up to now is       99.0 secs

     total energy              =    -275.96019189 Ry
     estimated scf accuracy    <       0.00032799 Ry

     iteration # 10     ecut=    90.00 Ry     beta= 0.70
     Davidson diagonalization with overlap
     ethr =  5.12E-07,  avg # of iterations =  1.0

     total cpu time spent up to now is      106.2 secs

     total energy              =    -275.96016712 Ry
     estimated scf accuracy    <       0.00015206 Ry

     iteration # 11     ecut=    90.00 Ry     beta= 0.70
     Davidson diagonalization with overlap
     ethr =  2.38E-07,  avg # of iterations =  2.0

     total cpu time spent up to now is      115.3 secs

     total energy              =    -275.96018781 Ry
     estimated scf accuracy    <       0.00002669 Ry

     iteration # 12     ecut=    90.00 Ry     beta= 0.70
     Davidson diagonalization with overlap
     ethr =  4.17E-08,  avg # of iterations =  2.0

     total cpu time spent up to now is      123.7 secs

     total energy              =    -275.96018085 Ry
     estimated scf accuracy    <       0.00001923 Ry

     iteration # 13     ecut=    90.00 Ry     beta= 0.70
     Davidson diagonalization with overlap
     ethr =  3.01E-08,  avg # of iterations =  2.8

     total cpu time spent up to now is      134.5 secs

     End of self-consistent calculation

     Number of k-points >= 100: set verbosity='high' to print the bands.

     highest occupied level (ev):    -3.6391

!    total energy              =    -275.96018592 Ry
     estimated scf accuracy    <       0.00000008 Ry

     The total energy is the sum of the following terms:
     one-electron contribution =    -244.27567517 Ry
     hartree contribution      =     142.06366084 Ry
     xc contribution           =     -67.59179106 Ry
     ewald contribution        =    -106.15638052 Ry

     convergence has been achieved in  13 iterations

     Forces acting on atoms (cartesian axes, Ry/au):

     atom    1 type  2   force =     0.00000000   -0.07501070   -0.03757050
     atom    2 type  2   force =     0.00000000    0.07501117   -0.03756977
     atom    3 type  2   force =     0.00000000   -0.07501086   -0.03757054
     atom    4 type  2   force =     0.00000000    0.07501115   -0.03756966
     atom    5 type  2   force =     0.00000000    0.08020021   -0.04997336
     atom    6 type  2   force =     0.00000000   -0.08020045   -0.04997329
     atom    7 type  2   force =     0.00000000    0.08020034   -0.04997337
     atom    8 type  2   force =     0.00000000   -0.08020029   -0.04997326
     atom    9 type  1   force =     0.00000000   -0.00471961    0.00243174
     atom   10 type  1   force =     0.00000000    0.00471956    0.00243122
     atom   11 type  1   force =     0.00000000   -0.00471962    0.00243173
     atom   12 type  1   force =     0.00000000    0.00471956    0.00243121
     atom   13 type  1   force =     0.00000000    0.07774626    0.02998776
     atom   14 type  1   force =     0.00000000   -0.07774618    0.02998768
     atom   15 type  1   force =     0.00000000    0.07774621    0.02998769
     atom   16 type  1   force =     0.00000000   -0.07774624    0.02998775
     atom   17 type  1   force =     0.03542934   -0.03891111    0.02756217
     atom   18 type  1   force =    -0.03542911    0.03891091    0.02756206
     atom   19 type  1   force =     0.03542911    0.03891091    0.02756206
     atom   20 type  1   force =    -0.03542934   -0.03891111    0.02756217
     atom   21 type  1   force =     0.03542920   -0.03891106    0.02756214
     atom   22 type  1   force =    -0.03542932    0.03891101    0.02756212
     atom   23 type  1   force =     0.03542932    0.03891101    0.02756212
     atom   24 type  1   force =    -0.03542920   -0.03891106    0.02756214

     Total force =     0.346395     Total SCF correction =     0.000211


     Computing stress (Cartesian axis) and pressure

          total   stress  (Ry/bohr**3)                   (kbar)     P=      -13.17
   0.00015349   0.00000000   0.00000000           22.58        0.00        0.00
   0.00000000  -0.00038144  -0.00000000            0.00      -56.11       -0.00
   0.00000000  -0.00000000  -0.00004062            0.00       -0.00       -5.98


     Writing all to output data dir ./iceIh/iceIh.save/ :
     XML data file, charge density, pseudopotentials, collected wavefunctions

     init_run     :      4.92s CPU      5.02s WALL (       1 calls)
     electrons    :    127.40s CPU    129.28s WALL (       1 calls)
     forces       :      0.69s CPU      0.70s WALL (       1 calls)
     stress       :      9.49s CPU      9.52s WALL (       1 calls)

     Called by init_run:
     wfcinit      :      4.32s CPU      4.39s WALL (       1 calls)
     potinit      :      0.03s CPU      0.04s WALL (       1 calls)
     hinit0       :      0.48s CPU      0.48s WALL (       1 calls)

     Called by electrons:
     c_bands      :    111.97s CPU    113.61s WALL (      13 calls)
     sum_band     :     15.18s CPU     15.34s WALL (      13 calls)
     v_of_rho     :      0.16s CPU      0.17s WALL (      14 calls)
     newd         :      0.03s CPU      0.03s WALL (      14 calls)
     mix_rho      :      0.04s CPU      0.04s WALL (      13 calls)

     Called by c_bands:
     init_us_2    :      1.98s CPU      2.05s WALL (    3335 calls)
     cegterg      :    108.33s CPU    109.26s WALL (    1495 calls)

     Called by *egterg:
     cdiaghg      :      8.24s CPU      8.26s WALL (    4945 calls)
     h_psi        :     85.72s CPU     86.62s WALL (    5060 calls)
     s_psi        :      3.45s CPU      3.47s WALL (    5060 calls)
     g_psi        :      0.30s CPU      0.30s WALL (    3450 calls)

     Called by h_psi:
     h_psi:calbec :      5.86s CPU      5.92s WALL (    5060 calls)
     vloc_psi     :     75.55s CPU     76.33s WALL (    5060 calls)
     add_vuspsi   :      3.64s CPU      3.67s WALL (    5060 calls)

     General routines
     calbec       :      7.87s CPU      7.96s WALL (    7130 calls)
     fft          :      0.55s CPU      0.55s WALL (     162 calls)
     ffts         :      0.01s CPU      0.01s WALL (      13 calls)
     fftw         :     79.42s CPU     80.23s WALL (  325788 calls)

     Parallel routines

     PWSCF        :   2m24.82s CPU   2m31.55s WALL


   This run was terminated on:  20:27:55  21Mar2026            

=------------------------------------------------------------------------------=
   JOB DONE.
=------------------------------------------------------------------------------=
