
     Program PWSCF v.7.3.1 starts on 21Mar2026 at 20:44:21 

     This program is part of the open-source Quantum ESPRESSO suite
     for quantum simulation of materials; please cite
         "P. Giannozzi et al., J. Phys.:Condens. Matter 21 395502 (2009);
         "P. Giannozzi et al., J. Phys.:Condens. Matter 29 465901 (2017);
         "P. Giannozzi et al., J. Chem. Phys. 152 154105 (2020);
          URL http://www.quantum-espresso.org", 
     in publications or presentations arising from this work. More details at
     http://www.quantum-espresso.org/quote

     Parallel version (MPI), running on   128 processors

     MPI processes distributed on     1 nodes
     236593 MiB available memory on the printing compute node when the environment starts

     Waiting for input...
     Reading input from standard input

     Current dimensions of program PWSCF are:
     Max number of different atomic species (ntypx) = 10
     Max number of k-points (npk) =  40000
     Max angular momentum in pseudopotentials (lmaxx) =  4
     Found identity + ( -0.5000 -0.5000  0.0000) symmetry
     This is a supercell, fractional translations are disabled

     K-points division:     npool     =       4
     R & G space division:  proc/nbgrp/npool/nimage =      32
     Subspace diagonalization in iterative solution of the eigenvalue problem:
     a serial algorithm will be used


     Parallelization info
     --------------------
     sticks:   dense  smooth     PW     G-vecs:    dense   smooth      PW
     Min         117     117     32                 6681     6681     964
     Max         118     118     33                 6686     6686     967
     Sum        3759    3759   1029               213875   213875   30873

     Using Slab Decomposition



     bravais-lattice index     =            8
     lattice parameter (alat)  =       8.6947  a.u.
     unit-cell volume          =    1853.2046 (a.u.)^3
     number of atoms/cell      =           24
     number of atomic types    =            2
     number of electrons       =        64.00
     number of Kohn-Sham states=           32
     kinetic-energy cutoff     =      90.0000  Ry
     charge density cutoff     =     360.0000  Ry
     scf convergence threshold =      1.0E-07
     mixing beta               =       0.7000
     number of iterations used =            8  plain     mixing
     Exchange-correlation=  SLA  PW   PBE  PBE
                           (   1   4   3   4   0   0   0)

     celldm(1)=   8.694712  celldm(2)=   1.732119  celldm(3)=   1.627721
     celldm(4)=   0.000000  celldm(5)=   0.000000  celldm(6)=   0.000000

     crystal axes: (cart. coord. in units of alat)
               a(1) = (   1.000000   0.000000   0.000000 )  
               a(2) = (   0.000000   1.732119   0.000000 )  
               a(3) = (   0.000000   0.000000   1.627721 )  

     reciprocal axes: (cart. coord. in units 2 pi/alat)
               b(1) = (  1.000000  0.000000  0.000000 )  
               b(2) = (  0.000000  0.577328  0.000000 )  
               b(3) = (  0.000000  0.000000  0.614356 )  


     PseudoPot. # 1 for H  read from file:
     ./H.pbe-van_ak.UPF
     MD5 check sum: 077eb6d537518a38cb46c6de387227b7
     Pseudo is Ultrasoft, Zval =  1.0
     Generated by new atomic code, or converted to UPF format
     Using radial grid of  615 points,  1 beta functions with: 
                l(1) =   0
     Q(r) pseudized with  8 coefficients,  rinner =    0.800

     PseudoPot. # 2 for O  read from file:
     ./O.pbe-van_ak.UPF
     MD5 check sum: 78c19812648e8988a0fe644b0f25305e
     Pseudo is Ultrasoft, Zval =  6.0
     Generated by new atomic code, or converted to UPF format
     Using radial grid of  737 points,  4 beta functions with: 
                l(1) =   0
                l(2) =   0
                l(3) =   1
                l(4) =   1
     Q(r) pseudized with  8 coefficients,  rinner =    0.800   0.800   0.800


     atomic species   valence    mass     pseudopotential
     H                 1.00     1.00800     H ( 1.00)
     O                 6.00    16.00000     O ( 1.00)

      2 Sym. Ops. (no inversion) found



   Cartesian axes

     site n.     atom                  positions (alat units)
         1        O      tau(   1) = (   0.0000000   1.1515127   0.1027092  )
         2        O      tau(   2) = (   0.0000000   0.5806063   0.9165697  )
         3        O      tau(   3) = (   0.5000000   0.2854532   0.1027092  )
         4        O      tau(   4) = (   0.5000000   1.4466659   0.9165697  )
         5        O      tau(   5) = (   0.5000000   1.4298643   1.5250118  )
         6        O      tau(   6) = (   0.5000000   0.3022548   0.7111513  )
         7        O      tau(   7) = (   0.0000000   0.5638048   1.5250118  )
         8        O      tau(   8) = (   0.0000000   1.1683143   0.7111513  )
         9        H      tau(   9) = (   0.0000000   1.1494343   0.3195216  )
        10        H      tau(  10) = (   0.0000000   0.5826848   1.1333822  )
        11        H      tau(  11) = (   0.5000000   0.2833747   0.3195216  )
        12        H      tau(  12) = (   0.5000000   1.4487443   1.1333822  )
        13        H      tau(  13) = (   0.0000000   0.9289355   0.0297873  )
        14        H      tau(  14) = (   0.0000000   0.8031836   0.8436478  )
        15        H      tau(  15) = (   0.5000000   0.0628759   0.0297873  )
        16        H      tau(  16) = (   0.5000000   1.6692431   0.8436478  )
        17        H      tau(  17) = (   0.6766000   1.3420459   1.5979337  )
        18        H      tau(  18) = (   0.3234000   0.3900732   0.7840732  )
        19        H      tau(  19) = (   0.6766000   0.3900732   0.7840732  )
        20        H      tau(  20) = (   0.3234000   1.3420459   1.5979337  )
        21        H      tau(  21) = (   0.1766000   0.4759863   1.5979337  )
        22        H      tau(  22) = (   0.8234000   1.2561327   0.7840732  )
        23        H      tau(  23) = (   0.1766000   1.2561327   0.7840732  )
        24        H      tau(  24) = (   0.8234000   0.4759863   1.5979337  )

     number of k points=   460

     Number of k-points >= 100: set verbosity='high' to print them.

     Dense  grid:   213875 G-vectors     FFT dimensions: (  54,  96,  90)

     Estimated max dynamical RAM per process >      55.91 MB

     Estimated total dynamical RAM >       6.84 GB

     Initial potential from superposition of free atoms

     starting charge      63.9998, renormalised to      64.0000
     Starting wfcs are   48 randomized atomic wfcs

     total cpu time spent up to now is        5.2 secs

     per-process dynamical memory:    63.6 Mb

     Self-consistent Calculation

     iteration #  1     ecut=    90.00 Ry     beta= 0.70
     Davidson diagonalization with overlap
     ethr =  1.00E-02,  avg # of iterations =  2.0

     total cpu time spent up to now is       14.9 secs

     total energy              =    -274.81201750 Ry
     estimated scf accuracy    <       2.72740495 Ry

     iteration #  2     ecut=    90.00 Ry     beta= 0.70
     Davidson diagonalization with overlap
     ethr =  4.26E-03,  avg # of iterations =  3.0

     total cpu time spent up to now is       27.5 secs

     total energy              =    -275.65166135 Ry
     estimated scf accuracy    <       1.80639613 Ry

     iteration #  3     ecut=    90.00 Ry     beta= 0.70
     Davidson diagonalization with overlap
     ethr =  2.82E-03,  avg # of iterations =  2.0

     total cpu time spent up to now is       37.2 secs

     total energy              =    -275.90000347 Ry
     estimated scf accuracy    <       0.06962914 Ry

     iteration #  4     ecut=    90.00 Ry     beta= 0.70
     Davidson diagonalization with overlap
     ethr =  1.09E-04,  avg # of iterations =  4.0

     total cpu time spent up to now is       51.6 secs

     total energy              =    -275.95499181 Ry
     estimated scf accuracy    <       0.08612993 Ry

     iteration #  5     ecut=    90.00 Ry     beta= 0.70
     Davidson diagonalization with overlap
     ethr =  1.09E-04,  avg # of iterations =  2.0

     total cpu time spent up to now is       59.9 secs

     total energy              =    -275.95794472 Ry
     estimated scf accuracy    <       0.01313059 Ry

     iteration #  6     ecut=    90.00 Ry     beta= 0.70
     Davidson diagonalization with overlap
     ethr =  2.05E-05,  avg # of iterations =  2.0

     negative rho (up, down):  4.296E-08 0.000E+00

     total cpu time spent up to now is       69.0 secs

     total energy              =    -275.95797778 Ry
     estimated scf accuracy    <       0.00324137 Ry

     iteration #  7     ecut=    90.00 Ry     beta= 0.70
     Davidson diagonalization with overlap
     ethr =  5.06E-06,  avg # of iterations =  2.0

     negative rho (up, down):  5.138E-08 0.000E+00

     total cpu time spent up to now is       79.4 secs

     total energy              =    -275.95963283 Ry
     estimated scf accuracy    <       0.00026368 Ry

     iteration #  8     ecut=    90.00 Ry     beta= 0.70
     Davidson diagonalization with overlap
     ethr =  4.12E-07,  avg # of iterations =  4.0

     negative rho (up, down):  2.135E-08 0.000E+00

     total cpu time spent up to now is       92.7 secs

     total energy              =    -275.95933364 Ry
     estimated scf accuracy    <       0.00155224 Ry

     iteration #  9     ecut=    90.00 Ry     beta= 0.70
     Davidson diagonalization with overlap
     ethr =  4.12E-07,  avg # of iterations =  3.0

     total cpu time spent up to now is      104.0 secs

     total energy              =    -275.95927656 Ry
     estimated scf accuracy    <       0.00043783 Ry

     iteration # 10     ecut=    90.00 Ry     beta= 0.70
     Davidson diagonalization with overlap
     ethr =  4.12E-07,  avg # of iterations =  2.0

     total cpu time spent up to now is      113.6 secs

     total energy              =    -275.95930973 Ry
     estimated scf accuracy    <       0.00007600 Ry

     iteration # 11     ecut=    90.00 Ry     beta= 0.70
     Davidson diagonalization with overlap
     ethr =  1.19E-07,  avg # of iterations =  2.0

     total cpu time spent up to now is      122.5 secs

     total energy              =    -275.95930950 Ry
     estimated scf accuracy    <       0.00002470 Ry

     iteration # 12     ecut=    90.00 Ry     beta= 0.70
     Davidson diagonalization with overlap
     ethr =  3.86E-08,  avg # of iterations =  2.8

     total cpu time spent up to now is      132.8 secs

     total energy              =    -275.95931533 Ry
     estimated scf accuracy    <       0.00000074 Ry

     iteration # 13     ecut=    90.00 Ry     beta= 0.70
     Davidson diagonalization with overlap
     ethr =  1.15E-09,  avg # of iterations =  4.8

     total cpu time spent up to now is      147.2 secs

     End of self-consistent calculation

     Number of k-points >= 100: set verbosity='high' to print the bands.

     highest occupied level (ev):    -3.6587

!    total energy              =    -275.95931590 Ry
     estimated scf accuracy    <       0.00000009 Ry

     The total energy is the sum of the following terms:
     one-electron contribution =    -244.67365375 Ry
     hartree contribution      =     142.22217501 Ry
     xc contribution           =     -67.55919905 Ry
     ewald contribution        =    -105.94863810 Ry

     convergence has been achieved in  13 iterations

     Forces acting on atoms (cartesian axes, Ry/au):

     atom    1 type  2   force =     0.00000000   -0.07645223   -0.03515307
     atom    2 type  2   force =     0.00000000    0.07645211   -0.03515240
     atom    3 type  2   force =     0.00000000   -0.07645213   -0.03515313
     atom    4 type  2   force =     0.00000000    0.07645217   -0.03515238
     atom    5 type  2   force =     0.00000000    0.07730125   -0.04775062
     atom    6 type  2   force =     0.00000000   -0.07730110   -0.04775047
     atom    7 type  2   force =     0.00000000    0.07730130   -0.04775068
     atom    8 type  2   force =     0.00000000   -0.07730104   -0.04775041
     atom    9 type  1   force =     0.00000000   -0.00483926   -0.00068840
     atom   10 type  1   force =     0.00000000    0.00483922   -0.00068904
     atom   11 type  1   force =     0.00000000   -0.00483926   -0.00068848
     atom   12 type  1   force =     0.00000000    0.00483924   -0.00068899
     atom   13 type  1   force =     0.00000000    0.07954484    0.03082492
     atom   14 type  1   force =     0.00000000   -0.07954481    0.03082487
     atom   15 type  1   force =     0.00000000    0.07954486    0.03082493
     atom   16 type  1   force =     0.00000000   -0.07954480    0.03082487
     atom   17 type  1   force =     0.03213155   -0.03739018    0.02638359
     atom   18 type  1   force =    -0.03213144    0.03739009    0.02638353
     atom   19 type  1   force =     0.03213144    0.03739009    0.02638353
     atom   20 type  1   force =    -0.03213155   -0.03739018    0.02638359
     atom   21 type  1   force =     0.03213153   -0.03739018    0.02638359
     atom   22 type  1   force =    -0.03213143    0.03739008    0.02638353
     atom   23 type  1   force =     0.03213143    0.03739008    0.02638353
     atom   24 type  1   force =    -0.03213153   -0.03739018    0.02638359

     Total force =     0.339946     Total SCF correction =     0.000509


     Computing stress (Cartesian axis) and pressure

          total   stress  (Ry/bohr**3)                   (kbar)     P=      -15.91
   0.00012924   0.00000000   0.00000000           19.01        0.00        0.00
   0.00000000  -0.00039410   0.00000000            0.00      -57.97        0.00
   0.00000000   0.00000000  -0.00005955            0.00        0.00       -8.76


     Writing all to output data dir ./iceIh/iceIh.save/ :
     XML data file, charge density, pseudopotentials, collected wavefunctions

     init_run     :      4.91s CPU      5.03s WALL (       1 calls)
     electrons    :    140.01s CPU    141.98s WALL (       1 calls)
     forces       :      0.62s CPU      0.64s WALL (       1 calls)
     stress       :      9.48s CPU      9.51s WALL (       1 calls)

     Called by init_run:
     wfcinit      :      4.33s CPU      4.39s WALL (       1 calls)
     potinit      :      0.02s CPU      0.04s WALL (       1 calls)
     hinit0       :      0.47s CPU      0.48s WALL (       1 calls)

     Called by electrons:
     c_bands      :    124.48s CPU    126.29s WALL (      13 calls)
     sum_band     :     15.26s CPU     15.40s WALL (      13 calls)
     v_of_rho     :      0.16s CPU      0.17s WALL (      14 calls)
     newd         :      0.03s CPU      0.04s WALL (      14 calls)
     mix_rho      :      0.04s CPU      0.04s WALL (      13 calls)

     Called by c_bands:
     init_us_2    :      2.01s CPU      2.07s WALL (    3335 calls)
     cegterg      :    118.74s CPU    119.82s WALL (    1495 calls)

     Called by *egterg:
     cdiaghg      :      9.50s CPU      9.54s WALL (    5588 calls)
     h_psi        :     92.66s CPU     93.66s WALL (    5703 calls)
     s_psi        :      3.83s CPU      3.86s WALL (    5703 calls)
     g_psi        :      0.34s CPU      0.34s WALL (    4093 calls)

     Called by h_psi:
     h_psi:calbec :      6.50s CPU      6.57s WALL (    5703 calls)
     vloc_psi     :     81.34s CPU     82.21s WALL (    5703 calls)
     add_vuspsi   :      4.06s CPU      4.10s WALL (    5703 calls)

     General routines
     calbec       :      8.41s CPU      8.50s WALL (    7773 calls)
     fft          :      0.54s CPU      0.55s WALL (     162 calls)
     ffts         :      0.01s CPU      0.01s WALL (      13 calls)
     fftw         :     84.73s CPU     85.58s WALL (  348044 calls)

     Parallel routines

     PWSCF        :   2m37.38s CPU   2m44.31s WALL


   This run was terminated on:  20:47: 6  21Mar2026            

=------------------------------------------------------------------------------=
   JOB DONE.
=------------------------------------------------------------------------------=
