
     Program PWSCF v.7.3.1 starts on 21Mar2026 at 21: 4: 0 

     This program is part of the open-source Quantum ESPRESSO suite
     for quantum simulation of materials; please cite
         "P. Giannozzi et al., J. Phys.:Condens. Matter 21 395502 (2009);
         "P. Giannozzi et al., J. Phys.:Condens. Matter 29 465901 (2017);
         "P. Giannozzi et al., J. Chem. Phys. 152 154105 (2020);
          URL http://www.quantum-espresso.org", 
     in publications or presentations arising from this work. More details at
     http://www.quantum-espresso.org/quote

     Parallel version (MPI), running on   128 processors

     MPI processes distributed on     1 nodes
     236565 MiB available memory on the printing compute node when the environment starts

     Waiting for input...
     Reading input from standard input

     Current dimensions of program PWSCF are:
     Max number of different atomic species (ntypx) = 10
     Max number of k-points (npk) =  40000
     Max angular momentum in pseudopotentials (lmaxx) =  4
     Found identity + ( -0.5000 -0.5000  0.0000) symmetry
     This is a supercell, fractional translations are disabled

     K-points division:     npool     =       4
     R & G space division:  proc/nbgrp/npool/nimage =      32
     Subspace diagonalization in iterative solution of the eigenvalue problem:
     a serial algorithm will be used


     Parallelization info
     --------------------
     sticks:   dense  smooth     PW     G-vecs:    dense   smooth      PW
     Min         117     117     32                 6721     6721     968
     Max         118     118     33                 6728     6728     973
     Sum        3771    3771   1033               215223   215223   30993

     Using Slab Decomposition



     bravais-lattice index     =            8
     lattice parameter (alat)  =       8.7117  a.u.
     unit-cell volume          =    1864.1058 (a.u.)^3
     number of atoms/cell      =           24
     number of atomic types    =            2
     number of electrons       =        64.00
     number of Kohn-Sham states=           32
     kinetic-energy cutoff     =      90.0000  Ry
     charge density cutoff     =     360.0000  Ry
     scf convergence threshold =      1.0E-07
     mixing beta               =       0.7000
     number of iterations used =            8  plain     mixing
     Exchange-correlation=  SLA  PW   PBE  PBE
                           (   1   4   3   4   0   0   0)

     celldm(1)=   8.711728  celldm(2)=   1.732119  celldm(3)=   1.627721
     celldm(4)=   0.000000  celldm(5)=   0.000000  celldm(6)=   0.000000

     crystal axes: (cart. coord. in units of alat)
               a(1) = (   1.000000   0.000000   0.000000 )  
               a(2) = (   0.000000   1.732119   0.000000 )  
               a(3) = (   0.000000   0.000000   1.627721 )  

     reciprocal axes: (cart. coord. in units 2 pi/alat)
               b(1) = (  1.000000  0.000000  0.000000 )  
               b(2) = (  0.000000  0.577328  0.000000 )  
               b(3) = (  0.000000  0.000000  0.614356 )  


     PseudoPot. # 1 for H  read from file:
     ./H.pbe-van_ak.UPF
     MD5 check sum: 077eb6d537518a38cb46c6de387227b7
     Pseudo is Ultrasoft, Zval =  1.0
     Generated by new atomic code, or converted to UPF format
     Using radial grid of  615 points,  1 beta functions with: 
                l(1) =   0
     Q(r) pseudized with  8 coefficients,  rinner =    0.800

     PseudoPot. # 2 for O  read from file:
     ./O.pbe-van_ak.UPF
     MD5 check sum: 78c19812648e8988a0fe644b0f25305e
     Pseudo is Ultrasoft, Zval =  6.0
     Generated by new atomic code, or converted to UPF format
     Using radial grid of  737 points,  4 beta functions with: 
                l(1) =   0
                l(2) =   0
                l(3) =   1
                l(4) =   1
     Q(r) pseudized with  8 coefficients,  rinner =    0.800   0.800   0.800


     atomic species   valence    mass     pseudopotential
     H                 1.00     1.00800     H ( 1.00)
     O                 6.00    16.00000     O ( 1.00)

      2 Sym. Ops. (no inversion) found



   Cartesian axes

     site n.     atom                  positions (alat units)
         1        O      tau(   1) = (   0.0000000   1.1515127   0.1027092  )
         2        O      tau(   2) = (   0.0000000   0.5806063   0.9165697  )
         3        O      tau(   3) = (   0.5000000   0.2854532   0.1027092  )
         4        O      tau(   4) = (   0.5000000   1.4466659   0.9165697  )
         5        O      tau(   5) = (   0.5000000   1.4298643   1.5250118  )
         6        O      tau(   6) = (   0.5000000   0.3022548   0.7111513  )
         7        O      tau(   7) = (   0.0000000   0.5638048   1.5250118  )
         8        O      tau(   8) = (   0.0000000   1.1683143   0.7111513  )
         9        H      tau(   9) = (   0.0000000   1.1494343   0.3195216  )
        10        H      tau(  10) = (   0.0000000   0.5826848   1.1333822  )
        11        H      tau(  11) = (   0.5000000   0.2833747   0.3195216  )
        12        H      tau(  12) = (   0.5000000   1.4487443   1.1333822  )
        13        H      tau(  13) = (   0.0000000   0.9289355   0.0297873  )
        14        H      tau(  14) = (   0.0000000   0.8031836   0.8436478  )
        15        H      tau(  15) = (   0.5000000   0.0628759   0.0297873  )
        16        H      tau(  16) = (   0.5000000   1.6692431   0.8436478  )
        17        H      tau(  17) = (   0.6766000   1.3420459   1.5979337  )
        18        H      tau(  18) = (   0.3234000   0.3900732   0.7840732  )
        19        H      tau(  19) = (   0.6766000   0.3900732   0.7840732  )
        20        H      tau(  20) = (   0.3234000   1.3420459   1.5979337  )
        21        H      tau(  21) = (   0.1766000   0.4759863   1.5979337  )
        22        H      tau(  22) = (   0.8234000   1.2561327   0.7840732  )
        23        H      tau(  23) = (   0.1766000   1.2561327   0.7840732  )
        24        H      tau(  24) = (   0.8234000   0.4759863   1.5979337  )

     number of k points=   460

     Number of k-points >= 100: set verbosity='high' to print them.

     Dense  grid:   215223 G-vectors     FFT dimensions: (  54,  96,  90)

     Estimated max dynamical RAM per process >      56.17 MB

     Estimated total dynamical RAM >       6.87 GB

     Initial potential from superposition of free atoms

     starting charge      63.9998, renormalised to      64.0000
     Starting wfcs are   48 randomized atomic wfcs

     total cpu time spent up to now is        5.4 secs

     per-process dynamical memory:    64.0 Mb

     Self-consistent Calculation

     iteration #  1     ecut=    90.00 Ry     beta= 0.70
     Davidson diagonalization with overlap
     ethr =  1.00E-02,  avg # of iterations =  2.0

     total cpu time spent up to now is       15.0 secs

     total energy              =    -274.81142320 Ry
     estimated scf accuracy    <       2.72105235 Ry

     iteration #  2     ecut=    90.00 Ry     beta= 0.70
     Davidson diagonalization with overlap
     ethr =  4.25E-03,  avg # of iterations =  3.0

     total cpu time spent up to now is       27.7 secs

     total energy              =    -275.64798320 Ry
     estimated scf accuracy    <       1.81937471 Ry

     iteration #  3     ecut=    90.00 Ry     beta= 0.70
     Davidson diagonalization with overlap
     ethr =  2.84E-03,  avg # of iterations =  2.0

     total cpu time spent up to now is       37.3 secs

     total energy              =    -275.89825290 Ry
     estimated scf accuracy    <       0.07036732 Ry

     iteration #  4     ecut=    90.00 Ry     beta= 0.70
     Davidson diagonalization with overlap
     ethr =  1.10E-04,  avg # of iterations =  4.0

     total cpu time spent up to now is       51.8 secs

     total energy              =    -275.95388344 Ry
     estimated scf accuracy    <       0.08677192 Ry

     iteration #  5     ecut=    90.00 Ry     beta= 0.70
     Davidson diagonalization with overlap
     ethr =  1.10E-04,  avg # of iterations =  2.0

     total cpu time spent up to now is       60.1 secs

     total energy              =    -275.95710640 Ry
     estimated scf accuracy    <       0.01338053 Ry

     iteration #  6     ecut=    90.00 Ry     beta= 0.70
     Davidson diagonalization with overlap
     ethr =  2.09E-05,  avg # of iterations =  2.0

     total cpu time spent up to now is       69.1 secs

     total energy              =    -275.95662137 Ry
     estimated scf accuracy    <       0.00399870 Ry

     iteration #  7     ecut=    90.00 Ry     beta= 0.70
     Davidson diagonalization with overlap
     ethr =  6.25E-06,  avg # of iterations =  2.3

     total cpu time spent up to now is       80.2 secs

     total energy              =    -275.95846804 Ry
     estimated scf accuracy    <       0.00023127 Ry

     iteration #  8     ecut=    90.00 Ry     beta= 0.70
     Davidson diagonalization with overlap
     ethr =  3.61E-07,  avg # of iterations =  5.0

     total cpu time spent up to now is       94.3 secs

     total energy              =    -275.95817077 Ry
     estimated scf accuracy    <       0.00165333 Ry

     iteration #  9     ecut=    90.00 Ry     beta= 0.70
     Davidson diagonalization with overlap
     ethr =  3.61E-07,  avg # of iterations =  3.0

     total cpu time spent up to now is      105.6 secs

     total energy              =    -275.95811571 Ry
     estimated scf accuracy    <       0.00045410 Ry

     iteration # 10     ecut=    90.00 Ry     beta= 0.70
     Davidson diagonalization with overlap
     ethr =  3.61E-07,  avg # of iterations =  2.0

     total cpu time spent up to now is      115.3 secs

     total energy              =    -275.95815377 Ry
     estimated scf accuracy    <       0.00007270 Ry

     iteration # 11     ecut=    90.00 Ry     beta= 0.70
     Davidson diagonalization with overlap
     ethr =  1.14E-07,  avg # of iterations =  2.0

     total cpu time spent up to now is      124.5 secs

     total energy              =    -275.95815529 Ry
     estimated scf accuracy    <       0.00002236 Ry

     iteration # 12     ecut=    90.00 Ry     beta= 0.70
     Davidson diagonalization with overlap
     ethr =  3.49E-08,  avg # of iterations =  3.0

     total cpu time spent up to now is      134.9 secs

     total energy              =    -275.95816054 Ry
     estimated scf accuracy    <       0.00000071 Ry

     iteration # 13     ecut=    90.00 Ry     beta= 0.70
     Davidson diagonalization with overlap
     ethr =  1.10E-09,  avg # of iterations =  5.0

     total cpu time spent up to now is      148.5 secs

     total energy              =    -275.95816109 Ry
     estimated scf accuracy    <       0.00000013 Ry

     iteration # 14     ecut=    90.00 Ry     beta= 0.70
     Davidson diagonalization with overlap
     ethr =  1.95E-10,  avg # of iterations =  2.0

     total cpu time spent up to now is      157.4 secs

     End of self-consistent calculation

     Number of k-points >= 100: set verbosity='high' to print the bands.

     highest occupied level (ev):    -3.6783

!    total energy              =    -275.95816109 Ry
     estimated scf accuracy    <       0.00000002 Ry

     The total energy is the sum of the following terms:
     one-electron contribution =    -245.06361315 Ry
     hartree contribution      =     142.37237491 Ry
     xc contribution           =     -67.52521569 Ry
     ewald contribution        =    -105.74170716 Ry

     convergence has been achieved in  14 iterations

     Forces acting on atoms (cartesian axes, Ry/au):

     atom    1 type  2   force =     0.00000000   -0.07803115   -0.03285814
     atom    2 type  2   force =     0.00000000    0.07803109   -0.03285735
     atom    3 type  2   force =     0.00000000   -0.07803114   -0.03285792
     atom    4 type  2   force =     0.00000000    0.07803109   -0.03285739
     atom    5 type  2   force =     0.00000000    0.07426710   -0.04530086
     atom    6 type  2   force =     0.00000000   -0.07426703   -0.04530059
     atom    7 type  2   force =     0.00000000    0.07426723   -0.04530073
     atom    8 type  2   force =     0.00000000   -0.07426701   -0.04530064
     atom    9 type  1   force =     0.00000000   -0.00496736   -0.00376358
     atom   10 type  1   force =     0.00000000    0.00496737   -0.00376418
     atom   11 type  1   force =     0.00000000   -0.00496741   -0.00376364
     atom   12 type  1   force =     0.00000000    0.00496735   -0.00376415
     atom   13 type  1   force =     0.00000000    0.08124528    0.03156266
     atom   14 type  1   force =     0.00000000   -0.08124530    0.03156264
     atom   15 type  1   force =     0.00000000    0.08124542    0.03156272
     atom   16 type  1   force =     0.00000000   -0.08124525    0.03156262
     atom   17 type  1   force =     0.02894809   -0.03592876    0.02517984
     atom   18 type  1   force =    -0.02894798    0.03592868    0.02517978
     atom   19 type  1   force =     0.02894798    0.03592868    0.02517978
     atom   20 type  1   force =    -0.02894809   -0.03592876    0.02517984
     atom   21 type  1   force =     0.02894811   -0.03592876    0.02517986
     atom   22 type  1   force =    -0.02894799    0.03592869    0.02517978
     atom   23 type  1   force =     0.02894799    0.03592869    0.02517978
     atom   24 type  1   force =    -0.02894811   -0.03592876    0.02517986

     Total force =     0.334053     Total SCF correction =     0.000202


     Computing stress (Cartesian axis) and pressure

          total   stress  (Ry/bohr**3)                   (kbar)     P=      -19.20
   0.00010149   0.00000000   0.00000000           14.93        0.00        0.00
   0.00000000  -0.00041049  -0.00000000            0.00      -60.38       -0.00
   0.00000000  -0.00000000  -0.00008247            0.00       -0.00      -12.13


     Writing all to output data dir ./iceIh/iceIh.save/ :
     XML data file, charge density, pseudopotentials, collected wavefunctions

     init_run     :      4.94s CPU      5.05s WALL (       1 calls)
     electrons    :    149.98s CPU    152.12s WALL (       1 calls)
     forces       :      0.65s CPU      0.66s WALL (       1 calls)
     stress       :      9.53s CPU      9.55s WALL (       1 calls)

     Called by init_run:
     wfcinit      :      4.34s CPU      4.41s WALL (       1 calls)
     potinit      :      0.03s CPU      0.04s WALL (       1 calls)
     hinit0       :      0.48s CPU      0.49s WALL (       1 calls)

     Called by electrons:
     c_bands      :    133.15s CPU    134.99s WALL (      14 calls)
     sum_band     :     16.57s CPU     16.75s WALL (      14 calls)
     v_of_rho     :      0.18s CPU      0.19s WALL (      15 calls)
     newd         :      0.03s CPU      0.04s WALL (      15 calls)
     mix_rho      :      0.04s CPU      0.04s WALL (      14 calls)

     Called by c_bands:
     init_us_2    :      2.14s CPU      2.21s WALL (    3565 calls)
     cegterg      :    128.73s CPU    129.81s WALL (    1610 calls)

     Called by *egterg:
     cdiaghg      :     10.56s CPU     10.59s WALL (    6185 calls)
     h_psi        :     99.66s CPU    100.67s WALL (    6300 calls)
     s_psi        :      4.17s CPU      4.20s WALL (    6300 calls)
     g_psi        :      0.36s CPU      0.37s WALL (    4575 calls)

     Called by h_psi:
     h_psi:calbec :      7.04s CPU      7.11s WALL (    6300 calls)
     vloc_psi     :     87.39s CPU     88.28s WALL (    6300 calls)
     add_vuspsi   :      4.39s CPU      4.43s WALL (    6300 calls)

     General routines
     calbec       :      9.13s CPU      9.22s WALL (    8485 calls)
     fft          :      0.55s CPU      0.56s WALL (     173 calls)
     ffts         :      0.01s CPU      0.01s WALL (      14 calls)
     fftw         :     90.98s CPU     91.88s WALL (  373832 calls)

     Parallel routines

     PWSCF        :   2m47.65s CPU   2m57.90s WALL


   This run was terminated on:  21: 6:57  21Mar2026            

=------------------------------------------------------------------------------=
   JOB DONE.
=------------------------------------------------------------------------------=
