
     Program PWSCF v.7.3.1 starts on 24Mar2026 at 21:21: 0 

     This program is part of the open-source Quantum ESPRESSO suite
     for quantum simulation of materials; please cite
         "P. Giannozzi et al., J. Phys.:Condens. Matter 21 395502 (2009);
         "P. Giannozzi et al., J. Phys.:Condens. Matter 29 465901 (2017);
         "P. Giannozzi et al., J. Chem. Phys. 152 154105 (2020);
          URL http://www.quantum-espresso.org", 
     in publications or presentations arising from this work. More details at
     http://www.quantum-espresso.org/quote

     Parallel version (MPI), running on   128 processors

     MPI processes distributed on     1 nodes
     236515 MiB available memory on the printing compute node when the environment starts

     Waiting for input...
     Reading input from standard input

     Current dimensions of program PWSCF are:
     Max number of different atomic species (ntypx) = 10
     Max number of k-points (npk) =  40000
     Max angular momentum in pseudopotentials (lmaxx) =  4
     Found identity + ( -0.5000  0.5000 -0.0000) symmetry
     This is a supercell, fractional translations are disabled

     K-points division:     npool     =       4
     R & G space division:  proc/nbgrp/npool/nimage =      32
     Subspace diagonalization in iterative solution of the eigenvalue problem:
     a serial algorithm will be used


     Parallelization info
     --------------------
     sticks:   dense  smooth     PW     G-vecs:    dense   smooth      PW
     Min         119     119     32                 6917     6917     992
     Max         121     121     33                 6920     6920    1001
     Sum        3841    3841   1047               221407   221407   31883

     Using Slab Decomposition



     bravais-lattice index     =            8
     lattice parameter (alat)  =       8.7968  a.u.
     unit-cell volume          =    1919.2533 (a.u.)^3
     number of atoms/cell      =           24
     number of atomic types    =            2
     number of electrons       =        64.00
     number of Kohn-Sham states=           32
     kinetic-energy cutoff     =      90.0000  Ry
     charge density cutoff     =     360.0000  Ry
     scf convergence threshold =      1.0E-07
     mixing beta               =       0.7000
     number of iterations used =            8  plain     mixing
     Exchange-correlation=  SLA  PW   PBE  PBE
                           (   1   4   3   4   0   0   0)

     celldm(1)=   8.796803  celldm(2)=   1.732119  celldm(3)=   1.627721
     celldm(4)=   0.000000  celldm(5)=   0.000000  celldm(6)=   0.000000

     crystal axes: (cart. coord. in units of alat)
               a(1) = (   1.000000   0.000000   0.000000 )  
               a(2) = (   0.000000   1.732119   0.000000 )  
               a(3) = (   0.000000   0.000000   1.627721 )  

     reciprocal axes: (cart. coord. in units 2 pi/alat)
               b(1) = (  1.000000  0.000000  0.000000 )  
               b(2) = (  0.000000  0.577328  0.000000 )  
               b(3) = (  0.000000  0.000000  0.614356 )  


     PseudoPot. # 1 for H  read from file:
     ./H.pbe-van_ak.UPF
     MD5 check sum: 077eb6d537518a38cb46c6de387227b7
     Pseudo is Ultrasoft, Zval =  1.0
     Generated by new atomic code, or converted to UPF format
     Using radial grid of  615 points,  1 beta functions with: 
                l(1) =   0
     Q(r) pseudized with  8 coefficients,  rinner =    0.800

     PseudoPot. # 2 for O  read from file:
     ./O.pbe-van_ak.UPF
     MD5 check sum: 78c19812648e8988a0fe644b0f25305e
     Pseudo is Ultrasoft, Zval =  6.0
     Generated by new atomic code, or converted to UPF format
     Using radial grid of  737 points,  4 beta functions with: 
                l(1) =   0
                l(2) =   0
                l(3) =   1
                l(4) =   1
     Q(r) pseudized with  8 coefficients,  rinner =    0.800   0.800   0.800


     atomic species   valence    mass     pseudopotential
     H                 1.00     1.00800     H ( 1.00)
     O                 6.00    16.00000     O ( 1.00)

      2 Sym. Ops. (no inversion) found



   Cartesian axes

     site n.     atom                  positions (alat units)
         1        O      tau(   1) = (   0.0000000   1.1484866   0.0984416  )
         2        O      tau(   2) = (   0.0000000   0.5836324   0.9123021  )
         3        O      tau(   3) = (   0.5000000   0.2824271   0.0984415  )
         4        O      tau(   4) = (   0.5000000   1.4496920   0.9123021  )
         5        O      tau(   5) = (   0.5000000   1.4402433   1.5187349  )
         6        O      tau(   6) = (   0.5000000   0.2918758   0.7048744  )
         7        O      tau(   7) = (   0.0000000   0.5741838   1.5187348  )
         8        O      tau(   8) = (   0.0000000   1.1579353   0.7048743  )
         9        H      tau(   9) = (   0.0000000   1.1487418   0.3216685  )
        10        H      tau(  10) = (   0.0000000   0.5833772   1.1355290  )
        11        H      tau(  11) = (   0.5000000   0.2826823   0.3216685  )
        12        H      tau(  12) = (   0.5000000   1.4494367   1.1355290  )
        13        H      tau(  13) = (   0.0000000   0.9333594   0.0315143  )
        14        H      tau(  14) = (   0.0000000   0.7987597   0.8453748  )
        15        H      tau(  15) = (   0.5000000   0.0672998   0.0315143  )
        16        H      tau(  16) = (   0.5000000   1.6648192   0.8453748  )
        17        H      tau(  17) = (   0.6820699   1.3365463   1.6012691  )
        18        H      tau(  18) = (   0.3179301   0.3955728   0.7874086  )
        19        H      tau(  19) = (   0.6820699   0.3955728   0.7874086  )
        20        H      tau(  20) = (   0.3179301   1.3365463   1.6012691  )
        21        H      tau(  21) = (   0.1820699   0.4704867   1.6012691  )
        22        H      tau(  22) = (   0.8179301   1.2616323   0.7874086  )
        23        H      tau(  23) = (   0.1820699   1.2616323   0.7874086  )
        24        H      tau(  24) = (   0.8179301   0.4704867   1.6012691  )

     number of k points=   460

     Number of k-points >= 100: set verbosity='high' to print them.

     Dense  grid:   221407 G-vectors     FFT dimensions: (  54,  96,  90)

     Estimated max dynamical RAM per process >      57.78 MB

     Estimated total dynamical RAM >       7.06 GB

     Initial potential from superposition of free atoms

     starting charge      63.9998, renormalised to      64.0000
     Starting wfcs are   48 randomized atomic wfcs

     total cpu time spent up to now is        5.4 secs

     per-process dynamical memory:    64.9 Mb

     Self-consistent Calculation

     iteration #  1     ecut=    90.00 Ry     beta= 0.70
     Davidson diagonalization with overlap
     ethr =  1.00E-02,  avg # of iterations =  2.0

     negative rho (up, down):  1.098E-07 0.000E+00

     total cpu time spent up to now is       15.1 secs

     total energy              =    -274.88957425 Ry
     estimated scf accuracy    <       2.48286354 Ry

     iteration #  2     ecut=    90.00 Ry     beta= 0.70
     Davidson diagonalization with overlap
     ethr =  3.88E-03,  avg # of iterations =  3.0

     total cpu time spent up to now is       28.0 secs

     total energy              =    -275.65440924 Ry
     estimated scf accuracy    <       1.82064836 Ry

     iteration #  3     ecut=    90.00 Ry     beta= 0.70
     Davidson diagonalization with overlap
     ethr =  2.84E-03,  avg # of iterations =  2.0

     negative rho (up, down):  3.158E-07 0.000E+00

     total cpu time spent up to now is       37.8 secs

     total energy              =    -275.89589884 Ry
     estimated scf accuracy    <       0.07718338 Ry

     iteration #  4     ecut=    90.00 Ry     beta= 0.70
     Davidson diagonalization with overlap
     ethr =  1.21E-04,  avg # of iterations =  4.0

     negative rho (up, down):  5.448E-07 0.000E+00

     total cpu time spent up to now is       52.5 secs

     total energy              =    -275.95609634 Ry
     estimated scf accuracy    <       0.09186379 Ry

     iteration #  5     ecut=    90.00 Ry     beta= 0.70
     Davidson diagonalization with overlap
     ethr =  1.21E-04,  avg # of iterations =  2.0

     negative rho (up, down):  9.484E-07 0.000E+00

     total cpu time spent up to now is       60.6 secs

     total energy              =    -275.95657094 Ry
     estimated scf accuracy    <       0.01492597 Ry

     iteration #  6     ecut=    90.00 Ry     beta= 0.70
     Davidson diagonalization with overlap
     ethr =  2.33E-05,  avg # of iterations =  2.0

     negative rho (up, down):  1.036E-06 0.000E+00

     total cpu time spent up to now is       70.6 secs

     total energy              =    -275.96026818 Ry
     estimated scf accuracy    <       0.00029722 Ry

     iteration #  7     ecut=    90.00 Ry     beta= 0.70
     Davidson diagonalization with overlap
     ethr =  4.64E-07,  avg # of iterations =  4.9

     negative rho (up, down):  9.708E-07 0.000E+00

     total cpu time spent up to now is       85.9 secs

     total energy              =    -275.96079077 Ry
     estimated scf accuracy    <       0.00129787 Ry

     iteration #  8     ecut=    90.00 Ry     beta= 0.70
     Davidson diagonalization with overlap
     ethr =  4.64E-07,  avg # of iterations =  1.0

     negative rho (up, down):  8.861E-07 0.000E+00

     total cpu time spent up to now is       93.2 secs

     total energy              =    -275.96040925 Ry
     estimated scf accuracy    <       0.00096199 Ry

     iteration #  9     ecut=    90.00 Ry     beta= 0.70
     Davidson diagonalization with overlap
     ethr =  4.64E-07,  avg # of iterations =  3.0

     negative rho (up, down):  8.637E-07 0.000E+00

     total cpu time spent up to now is      105.1 secs

     total energy              =    -275.96050377 Ry
     estimated scf accuracy    <       0.00005500 Ry

     iteration # 10     ecut=    90.00 Ry     beta= 0.70
     Davidson diagonalization with overlap
     ethr =  8.59E-08,  avg # of iterations =  3.0

     negative rho (up, down):  8.776E-07 0.000E+00

     total cpu time spent up to now is      117.1 secs

     total energy              =    -275.96052825 Ry
     estimated scf accuracy    <       0.00000702 Ry

     iteration # 11     ecut=    90.00 Ry     beta= 0.70
     Davidson diagonalization with overlap
     ethr =  1.10E-08,  avg # of iterations =  2.0

     negative rho (up, down):  8.813E-07 0.000E+00

     total cpu time spent up to now is      126.8 secs

     total energy              =    -275.96052952 Ry
     estimated scf accuracy    <       0.00000030 Ry

     iteration # 12     ecut=    90.00 Ry     beta= 0.70
     Davidson diagonalization with overlap
     ethr =  4.68E-10,  avg # of iterations =  4.0

     negative rho (up, down):  8.842E-07 0.000E+00

     total cpu time spent up to now is      140.0 secs

     total energy              =    -275.96052970 Ry
     estimated scf accuracy    <       0.00000014 Ry

     iteration # 13     ecut=    90.00 Ry     beta= 0.70
     Davidson diagonalization with overlap
     ethr =  2.24E-10,  avg # of iterations =  1.2

     negative rho (up, down):  8.827E-07 0.000E+00

     total cpu time spent up to now is      147.8 secs

     total energy              =    -275.96052963 Ry
     estimated scf accuracy    <       0.00000013 Ry

     iteration # 14     ecut=    90.00 Ry     beta= 0.70
     Davidson diagonalization with overlap
     ethr =  2.00E-10,  avg # of iterations =  3.0

     negative rho (up, down):  8.835E-07 0.000E+00

     total cpu time spent up to now is      159.6 secs

     End of self-consistent calculation

     Number of k-points >= 100: set verbosity='high' to print the bands.

     highest occupied level (ev):    -3.8303

!    total energy              =    -275.96052966 Ry
     estimated scf accuracy    <       0.00000002 Ry

     The total energy is the sum of the following terms:
     one-electron contribution =    -243.16619485 Ry
     hartree contribution      =     141.35793387 Ry
     xc contribution           =     -66.98501488 Ry
     ewald contribution        =    -107.16725381 Ry

     convergence has been achieved in  14 iterations

     Forces acting on atoms (cartesian axes, Ry/au):

     atom    1 type  2   force =     0.00000000   -0.04353301    0.02613143
     atom    2 type  2   force =     0.00000000    0.04353530    0.02613199
     atom    3 type  2   force =     0.00000000   -0.04353524    0.02613201
     atom    4 type  2   force =     0.00000000    0.04353160    0.02613090
     atom    5 type  2   force =     0.00000000   -0.03961960    0.04085682
     atom    6 type  2   force =     0.00000000    0.03961979    0.04085729
     atom    7 type  2   force =     0.00000000   -0.03961998    0.04085755
     atom    8 type  2   force =     0.00000000    0.03961999    0.04085731
     atom    9 type  1   force =     0.00000000   -0.00409728   -0.04659063
     atom   10 type  1   force =     0.00000000    0.00409754   -0.04659024
     atom   11 type  1   force =     0.00000000   -0.00409738   -0.04659029
     atom   12 type  1   force =     0.00000000    0.00409741   -0.04659083
     atom   13 type  1   force =     0.00000000    0.05292775    0.01889981
     atom   14 type  1   force =     0.00000000   -0.05292720    0.01889979
     atom   15 type  1   force =     0.00000000    0.05292745    0.01889983
     atom   16 type  1   force =     0.00000000   -0.05292783    0.01889987
     atom   17 type  1   force =    -0.05108153    0.01782976   -0.01964908
     atom   18 type  1   force =     0.05108141   -0.01782951   -0.01964906
     atom   19 type  1   force =    -0.05108141   -0.01782951   -0.01964906
     atom   20 type  1   force =     0.05108153    0.01782976   -0.01964908
     atom   21 type  1   force =    -0.05108136    0.01782971   -0.01964907
     atom   22 type  1   force =     0.05108141   -0.01782961   -0.01964909
     atom   23 type  1   force =    -0.05108141   -0.01782961   -0.01964909
     atom   24 type  1   force =     0.05108136    0.01782971   -0.01964907

     Total force =     0.266756     Total SCF correction =     0.000071


     Computing stress (Cartesian axis) and pressure

          total   stress  (Ry/bohr**3)                   (kbar)     P=      -70.65
  -0.00052721   0.00000000   0.00000000          -77.56        0.00        0.00
   0.00000000  -0.00047555   0.00000000            0.00      -69.96        0.00
   0.00000000   0.00000000  -0.00043809            0.00        0.00      -64.45


     Writing all to output data dir ./iceIh/iceIh.save/ :
     XML data file, charge density, pseudopotentials, collected wavefunctions

     init_run     :      4.99s CPU      5.12s WALL (       1 calls)
     electrons    :    152.04s CPU    154.20s WALL (       1 calls)
     forces       :      0.66s CPU      0.67s WALL (       1 calls)
     stress       :      9.91s CPU      9.93s WALL (       1 calls)

     Called by init_run:
     wfcinit      :      4.39s CPU      4.47s WALL (       1 calls)
     potinit      :      0.02s CPU      0.04s WALL (       1 calls)
     hinit0       :      0.49s CPU      0.49s WALL (       1 calls)

     Called by electrons:
     c_bands      :    135.26s CPU    137.20s WALL (      14 calls)
     sum_band     :     16.49s CPU     16.65s WALL (      14 calls)
     v_of_rho     :      0.18s CPU      0.19s WALL (      15 calls)
     newd         :      0.04s CPU      0.05s WALL (      15 calls)
     mix_rho      :      0.04s CPU      0.04s WALL (      14 calls)

     Called by c_bands:
     init_us_2    :      2.26s CPU      2.34s WALL (    3565 calls)
     cegterg      :    130.72s CPU    131.89s WALL (    1610 calls)

     Called by *egterg:
     cdiaghg      :     10.14s CPU     10.18s WALL (    5901 calls)
     h_psi        :    101.50s CPU    102.61s WALL (    6016 calls)
     s_psi        :      4.19s CPU      4.21s WALL (    6016 calls)
     g_psi        :      0.38s CPU      0.38s WALL (    4291 calls)

     Called by h_psi:
     h_psi:calbec :      7.24s CPU      7.30s WALL (    6016 calls)
     vloc_psi     :     88.97s CPU     89.97s WALL (    6016 calls)
     add_vuspsi   :      4.44s CPU      4.47s WALL (    6016 calls)

     General routines
     calbec       :      9.31s CPU      9.40s WALL (    8201 calls)
     fft          :      0.55s CPU      0.56s WALL (     173 calls)
     ffts         :      0.01s CPU      0.01s WALL (      14 calls)
     fftw         :     92.32s CPU     93.30s WALL (  378970 calls)

     Parallel routines

     PWSCF        :   2m50.49s CPU   2m57.77s WALL


   This run was terminated on:  21:23:58  24Mar2026            

=------------------------------------------------------------------------------=
   JOB DONE.
=------------------------------------------------------------------------------=
