
     Program PWSCF v.7.3.1 starts on 24Mar2026 at 21:24: 3 

     This program is part of the open-source Quantum ESPRESSO suite
     for quantum simulation of materials; please cite
         "P. Giannozzi et al., J. Phys.:Condens. Matter 21 395502 (2009);
         "P. Giannozzi et al., J. Phys.:Condens. Matter 29 465901 (2017);
         "P. Giannozzi et al., J. Chem. Phys. 152 154105 (2020);
          URL http://www.quantum-espresso.org", 
     in publications or presentations arising from this work. More details at
     http://www.quantum-espresso.org/quote

     Parallel version (MPI), running on   128 processors

     MPI processes distributed on     1 nodes
     236489 MiB available memory on the printing compute node when the environment starts

     Waiting for input...
     Reading input from standard input

     Current dimensions of program PWSCF are:
     Max number of different atomic species (ntypx) = 10
     Max number of k-points (npk) =  40000
     Max angular momentum in pseudopotentials (lmaxx) =  4
     Found identity + ( -0.5000  0.5000 -0.0000) symmetry
     This is a supercell, fractional translations are disabled

     K-points division:     npool     =       4
     R & G space division:  proc/nbgrp/npool/nimage =      32
     Subspace diagonalization in iterative solution of the eigenvalue problem:
     a serial algorithm will be used


     Parallelization info
     --------------------
     sticks:   dense  smooth     PW     G-vecs:    dense   smooth      PW
     Min         120     120     32                 6962     6962     998
     Max         121     121     33                 6965     6965    1005
     Sum        3849    3849   1047               222811   222811   32035

     Using Slab Decomposition



     bravais-lattice index     =            8
     lattice parameter (alat)  =       8.8138  a.u.
     unit-cell volume          =    1930.4118 (a.u.)^3
     number of atoms/cell      =           24
     number of atomic types    =            2
     number of electrons       =        64.00
     number of Kohn-Sham states=           32
     kinetic-energy cutoff     =      90.0000  Ry
     charge density cutoff     =     360.0000  Ry
     scf convergence threshold =      1.0E-07
     mixing beta               =       0.7000
     number of iterations used =            8  plain     mixing
     Exchange-correlation=  SLA  PW   PBE  PBE
                           (   1   4   3   4   0   0   0)

     celldm(1)=   8.813818  celldm(2)=   1.732119  celldm(3)=   1.627721
     celldm(4)=   0.000000  celldm(5)=   0.000000  celldm(6)=   0.000000

     crystal axes: (cart. coord. in units of alat)
               a(1) = (   1.000000   0.000000   0.000000 )  
               a(2) = (   0.000000   1.732119   0.000000 )  
               a(3) = (   0.000000   0.000000   1.627721 )  

     reciprocal axes: (cart. coord. in units 2 pi/alat)
               b(1) = (  1.000000  0.000000  0.000000 )  
               b(2) = (  0.000000  0.577328  0.000000 )  
               b(3) = (  0.000000  0.000000  0.614356 )  


     PseudoPot. # 1 for H  read from file:
     ./H.pbe-van_ak.UPF
     MD5 check sum: 077eb6d537518a38cb46c6de387227b7
     Pseudo is Ultrasoft, Zval =  1.0
     Generated by new atomic code, or converted to UPF format
     Using radial grid of  615 points,  1 beta functions with: 
                l(1) =   0
     Q(r) pseudized with  8 coefficients,  rinner =    0.800

     PseudoPot. # 2 for O  read from file:
     ./O.pbe-van_ak.UPF
     MD5 check sum: 78c19812648e8988a0fe644b0f25305e
     Pseudo is Ultrasoft, Zval =  6.0
     Generated by new atomic code, or converted to UPF format
     Using radial grid of  737 points,  4 beta functions with: 
                l(1) =   0
                l(2) =   0
                l(3) =   1
                l(4) =   1
     Q(r) pseudized with  8 coefficients,  rinner =    0.800   0.800   0.800


     atomic species   valence    mass     pseudopotential
     H                 1.00     1.00800     H ( 1.00)
     O                 6.00    16.00000     O ( 1.00)

      2 Sym. Ops. (no inversion) found



   Cartesian axes

     site n.     atom                  positions (alat units)
         1        O      tau(   1) = (   0.0000000   1.1484866   0.0984416  )
         2        O      tau(   2) = (   0.0000000   0.5836324   0.9123021  )
         3        O      tau(   3) = (   0.5000000   0.2824271   0.0984415  )
         4        O      tau(   4) = (   0.5000000   1.4496920   0.9123021  )
         5        O      tau(   5) = (   0.5000000   1.4402433   1.5187349  )
         6        O      tau(   6) = (   0.5000000   0.2918758   0.7048744  )
         7        O      tau(   7) = (   0.0000000   0.5741838   1.5187348  )
         8        O      tau(   8) = (   0.0000000   1.1579353   0.7048743  )
         9        H      tau(   9) = (   0.0000000   1.1487418   0.3216685  )
        10        H      tau(  10) = (   0.0000000   0.5833772   1.1355290  )
        11        H      tau(  11) = (   0.5000000   0.2826823   0.3216685  )
        12        H      tau(  12) = (   0.5000000   1.4494367   1.1355290  )
        13        H      tau(  13) = (   0.0000000   0.9333594   0.0315143  )
        14        H      tau(  14) = (   0.0000000   0.7987597   0.8453748  )
        15        H      tau(  15) = (   0.5000000   0.0672998   0.0315143  )
        16        H      tau(  16) = (   0.5000000   1.6648192   0.8453748  )
        17        H      tau(  17) = (   0.6820699   1.3365463   1.6012691  )
        18        H      tau(  18) = (   0.3179301   0.3955728   0.7874086  )
        19        H      tau(  19) = (   0.6820699   0.3955728   0.7874086  )
        20        H      tau(  20) = (   0.3179301   1.3365463   1.6012691  )
        21        H      tau(  21) = (   0.1820699   0.4704867   1.6012691  )
        22        H      tau(  22) = (   0.8179301   1.2616323   0.7874086  )
        23        H      tau(  23) = (   0.1820699   1.2616323   0.7874086  )
        24        H      tau(  24) = (   0.8179301   0.4704867   1.6012691  )

     number of k points=   460

     Number of k-points >= 100: set verbosity='high' to print them.

     Dense  grid:   222811 G-vectors     FFT dimensions: (  54,  96,  90)

     Estimated max dynamical RAM per process >      58.10 MB

     Estimated total dynamical RAM >       7.10 GB

     Initial potential from superposition of free atoms

     starting charge      63.9998, renormalised to      64.0000
     Starting wfcs are   48 randomized atomic wfcs

     total cpu time spent up to now is        5.4 secs

     per-process dynamical memory:    66.3 Mb

     Self-consistent Calculation

     iteration #  1     ecut=    90.00 Ry     beta= 0.70
     Davidson diagonalization with overlap
     ethr =  1.00E-02,  avg # of iterations =  2.0

     total cpu time spent up to now is       15.2 secs

     total energy              =    -274.88440081 Ry
     estimated scf accuracy    <       2.47838450 Ry

     iteration #  2     ecut=    90.00 Ry     beta= 0.70
     Davidson diagonalization with overlap
     ethr =  3.87E-03,  avg # of iterations =  3.0

     total cpu time spent up to now is       28.2 secs

     total energy              =    -275.64715681 Ry
     estimated scf accuracy    <       1.83266573 Ry

     iteration #  3     ecut=    90.00 Ry     beta= 0.70
     Davidson diagonalization with overlap
     ethr =  2.86E-03,  avg # of iterations =  2.0

     total cpu time spent up to now is       38.0 secs

     total energy              =    -275.88990398 Ry
     estimated scf accuracy    <       0.07809025 Ry

     iteration #  4     ecut=    90.00 Ry     beta= 0.70
     Davidson diagonalization with overlap
     ethr =  1.22E-04,  avg # of iterations =  4.0

     negative rho (up, down):  3.042E-07 0.000E+00

     total cpu time spent up to now is       52.7 secs

     total energy              =    -275.95082493 Ry
     estimated scf accuracy    <       0.09263958 Ry

     iteration #  5     ecut=    90.00 Ry     beta= 0.70
     Davidson diagonalization with overlap
     ethr =  1.22E-04,  avg # of iterations =  2.0

     negative rho (up, down):  6.345E-07 0.000E+00

     total cpu time spent up to now is       60.7 secs

     total energy              =    -275.95130352 Ry
     estimated scf accuracy    <       0.01512537 Ry

     iteration #  6     ecut=    90.00 Ry     beta= 0.70
     Davidson diagonalization with overlap
     ethr =  2.36E-05,  avg # of iterations =  2.0

     negative rho (up, down):  7.238E-07 0.000E+00

     total cpu time spent up to now is       70.9 secs

     total energy              =    -275.95497538 Ry
     estimated scf accuracy    <       0.00032504 Ry

     iteration #  7     ecut=    90.00 Ry     beta= 0.70
     Davidson diagonalization with overlap
     ethr =  5.08E-07,  avg # of iterations =  4.6

     negative rho (up, down):  6.725E-07 0.000E+00

     total cpu time spent up to now is       86.0 secs

     total energy              =    -275.95557208 Ry
     estimated scf accuracy    <       0.00127590 Ry

     iteration #  8     ecut=    90.00 Ry     beta= 0.70
     Davidson diagonalization with overlap
     ethr =  5.08E-07,  avg # of iterations =  1.0

     negative rho (up, down):  5.954E-07 0.000E+00

     total cpu time spent up to now is       93.2 secs

     total energy              =    -275.95509643 Ry
     estimated scf accuracy    <       0.00109883 Ry

     iteration #  9     ecut=    90.00 Ry     beta= 0.70
     Davidson diagonalization with overlap
     ethr =  5.08E-07,  avg # of iterations =  3.0

     negative rho (up, down):  5.819E-07 0.000E+00

     total cpu time spent up to now is      105.5 secs

     total energy              =    -275.95523965 Ry
     estimated scf accuracy    <       0.00003343 Ry

     iteration # 10     ecut=    90.00 Ry     beta= 0.70
     Davidson diagonalization with overlap
     ethr =  5.22E-08,  avg # of iterations =  3.0

     negative rho (up, down):  5.914E-07 0.000E+00

     total cpu time spent up to now is      118.3 secs

     total energy              =    -275.95525805 Ry
     estimated scf accuracy    <       0.00000258 Ry

     iteration # 11     ecut=    90.00 Ry     beta= 0.70
     Davidson diagonalization with overlap
     ethr =  4.02E-09,  avg # of iterations =  2.0

     negative rho (up, down):  5.980E-07 0.000E+00

     total cpu time spent up to now is      128.2 secs

     total energy              =    -275.95525878 Ry
     estimated scf accuracy    <       0.00000014 Ry

     iteration # 12     ecut=    90.00 Ry     beta= 0.70
     Davidson diagonalization with overlap
     ethr =  2.24E-10,  avg # of iterations =  6.0

     negative rho (up, down):  5.962E-07 0.000E+00

     total cpu time spent up to now is      146.8 secs

     total energy              =    -275.95525836 Ry
     estimated scf accuracy    <       0.00000277 Ry

     iteration # 13     ecut=    90.00 Ry     beta= 0.70
     Davidson diagonalization with overlap
     ethr =  2.24E-10,  avg # of iterations =  4.0

     negative rho (up, down):  5.947E-07 0.000E+00

     total cpu time spent up to now is      161.8 secs

     total energy              =    -275.95525854 Ry
     estimated scf accuracy    <       0.00000023 Ry

     iteration # 14     ecut=    90.00 Ry     beta= 0.70
     Davidson diagonalization with overlap
     ethr =  2.24E-10,  avg # of iterations =  3.0

     negative rho (up, down):  5.944E-07 0.000E+00

     total cpu time spent up to now is      174.0 secs

     End of self-consistent calculation

     Number of k-points >= 100: set verbosity='high' to print the bands.

     highest occupied level (ev):    -3.8496

!    total energy              =    -275.95525859 Ry
     estimated scf accuracy    <          6.3E-09 Ry

     The total energy is the sum of the following terms:
     one-electron contribution =    -243.54738712 Ry
     hartree contribution      =     141.50472890 Ry
     xc contribution           =     -66.95223315 Ry
     ewald contribution        =    -106.96036722 Ry

     convergence has been achieved in  14 iterations

     Forces acting on atoms (cartesian axes, Ry/au):

     atom    1 type  2   force =     0.00000000   -0.04552737    0.02759678
     atom    2 type  2   force =     0.00000000    0.04552733    0.02759678
     atom    3 type  2   force =     0.00000000   -0.04552764    0.02759695
     atom    4 type  2   force =     0.00000000    0.04552769    0.02759705
     atom    5 type  2   force =     0.00000000   -0.04161160    0.04239063
     atom    6 type  2   force =     0.00000000    0.04161146    0.04239050
     atom    7 type  2   force =     0.00000000   -0.04161143    0.04239058
     atom    8 type  2   force =     0.00000000    0.04161135    0.04239053
     atom    9 type  1   force =     0.00000000   -0.00425079   -0.04896681
     atom   10 type  1   force =     0.00000000    0.00425079   -0.04896673
     atom   11 type  1   force =     0.00000000   -0.00425080   -0.04896670
     atom   12 type  1   force =     0.00000000    0.00425081   -0.04896657
     atom   13 type  1   force =     0.00000000    0.05497511    0.01972160
     atom   14 type  1   force =     0.00000000   -0.05497496    0.01972156
     atom   15 type  1   force =     0.00000000    0.05497504    0.01972159
     atom   16 type  1   force =     0.00000000   -0.05497483    0.01972155
     atom   17 type  1   force =    -0.05298228    0.01877352   -0.02037113
     atom   18 type  1   force =     0.05298231   -0.01877356   -0.02037118
     atom   19 type  1   force =    -0.05298231   -0.01877356   -0.02037118
     atom   20 type  1   force =     0.05298228    0.01877352   -0.02037113
     atom   21 type  1   force =    -0.05298222    0.01877353   -0.02037115
     atom   22 type  1   force =     0.05298222   -0.01877356   -0.02037118
     atom   23 type  1   force =    -0.05298222   -0.01877356   -0.02037118
     atom   24 type  1   force =     0.05298222    0.01877353   -0.02037115

     Total force =     0.278129     Total SCF correction =     0.000018


     Computing stress (Cartesian axis) and pressure

          total   stress  (Ry/bohr**3)                   (kbar)     P=      -73.02
  -0.00054284   0.00000000   0.00000000          -79.85        0.00        0.00
   0.00000000  -0.00049116   0.00000000            0.00      -72.25        0.00
   0.00000000   0.00000000  -0.00045512            0.00        0.00      -66.95


     Writing all to output data dir ./iceIh/iceIh.save/ :
     XML data file, charge density, pseudopotentials, collected wavefunctions

     init_run     :      4.97s CPU      5.09s WALL (       1 calls)
     electrons    :    166.43s CPU    168.60s WALL (       1 calls)
     forces       :      0.67s CPU      0.68s WALL (       1 calls)
     stress       :      9.97s CPU      9.99s WALL (       1 calls)

     Called by init_run:
     wfcinit      :      4.37s CPU      4.45s WALL (       1 calls)
     potinit      :      0.03s CPU      0.04s WALL (       1 calls)
     hinit0       :      0.47s CPU      0.48s WALL (       1 calls)

     Called by electrons:
     c_bands      :    149.64s CPU    151.53s WALL (      14 calls)
     sum_band     :     16.51s CPU     16.73s WALL (      14 calls)
     v_of_rho     :      0.18s CPU      0.19s WALL (      15 calls)
     newd         :      0.03s CPU      0.04s WALL (      15 calls)
     mix_rho      :      0.04s CPU      0.04s WALL (      14 calls)

     Called by c_bands:
     init_us_2    :      2.37s CPU      2.45s WALL (    3565 calls)
     cegterg      :    145.23s CPU    146.36s WALL (    1610 calls)

     Called by *egterg:
     cdiaghg      :     11.24s CPU     11.28s WALL (    6390 calls)
     h_psi        :    111.64s CPU    112.70s WALL (    6505 calls)
     s_psi        :      4.64s CPU      4.67s WALL (    6505 calls)
     g_psi        :      0.45s CPU      0.45s WALL (    4780 calls)

     Called by h_psi:
     h_psi:calbec :      8.06s CPU      8.15s WALL (    6505 calls)
     vloc_psi     :     97.64s CPU     98.55s WALL (    6505 calls)
     add_vuspsi   :      4.98s CPU      5.03s WALL (    6505 calls)

     General routines
     calbec       :     10.11s CPU     10.22s WALL (    8690 calls)
     fft          :      0.55s CPU      0.56s WALL (     173 calls)
     ffts         :      0.01s CPU      0.01s WALL (      14 calls)
     fftw         :    100.15s CPU    101.09s WALL (  411258 calls)

     Parallel routines

     PWSCF        :   3m 4.56s CPU   3m11.77s WALL


   This run was terminated on:  21:27:15  24Mar2026            

=------------------------------------------------------------------------------=
   JOB DONE.
=------------------------------------------------------------------------------=
