
     Program PWSCF v.7.3.1 starts on  1Apr2026 at 16:30:48 

     This program is part of the open-source Quantum ESPRESSO suite
     for quantum simulation of materials; please cite
         "P. Giannozzi et al., J. Phys.:Condens. Matter 21 395502 (2009);
         "P. Giannozzi et al., J. Phys.:Condens. Matter 29 465901 (2017);
         "P. Giannozzi et al., J. Chem. Phys. 152 154105 (2020);
          URL http://www.quantum-espresso.org", 
     in publications or presentations arising from this work. More details at
     http://www.quantum-espresso.org/quote

     Parallel version (MPI), running on   128 processors

     MPI processes distributed on     1 nodes
     236116 MiB available memory on the printing compute node when the environment starts

     Waiting for input...
     Reading input from standard input

     Current dimensions of program PWSCF are:
     Max number of different atomic species (ntypx) = 10
     Max number of k-points (npk) =  40000
     Max angular momentum in pseudopotentials (lmaxx) =  4
     Found identity + ( -0.5000 -0.5000  0.0000) symmetry
     This is a supercell, fractional translations are disabled

     K-points division:     npool     =       4
     R & G space division:  proc/nbgrp/npool/nimage =      32
     Subspace diagonalization in iterative solution of the eigenvalue problem:
     a serial algorithm will be used


     Parallelization info
     --------------------
     sticks:   dense  smooth     PW     G-vecs:    dense   smooth      PW
     Min         120     120     32                 6962     6962     998
     Max         121     121     33                 6965     6965    1005
     Sum        3849    3849   1047               222811   222811   32035

     Using Slab Decomposition



     bravais-lattice index     =            8
     lattice parameter (alat)  =       8.8138  a.u.
     unit-cell volume          =    1930.4118 (a.u.)^3
     number of atoms/cell      =           24
     number of atomic types    =            2
     number of electrons       =        64.00
     number of Kohn-Sham states=           32
     kinetic-energy cutoff     =      90.0000  Ry
     charge density cutoff     =     360.0000  Ry
     scf convergence threshold =      1.0E-07
     mixing beta               =       0.7000
     number of iterations used =            8  plain     mixing
     energy convergence thresh.=      1.0E-04
     force convergence thresh. =      1.0E-03
     Exchange-correlation=  SLA  PW   PBE  PBE
                           (   1   4   3   4   0   0   0)
     nstep                     =           50


     celldm(1)=   8.813818  celldm(2)=   1.732119  celldm(3)=   1.627721
     celldm(4)=   0.000000  celldm(5)=   0.000000  celldm(6)=   0.000000

     crystal axes: (cart. coord. in units of alat)
               a(1) = (   1.000000   0.000000   0.000000 )  
               a(2) = (   0.000000   1.732119   0.000000 )  
               a(3) = (   0.000000   0.000000   1.627721 )  

     reciprocal axes: (cart. coord. in units 2 pi/alat)
               b(1) = (  1.000000  0.000000  0.000000 )  
               b(2) = (  0.000000  0.577328  0.000000 )  
               b(3) = (  0.000000  0.000000  0.614356 )  


     PseudoPot. # 1 for H  read from file:
     ./H.pbe-van_ak.UPF
     MD5 check sum: 077eb6d537518a38cb46c6de387227b7
     Pseudo is Ultrasoft, Zval =  1.0
     Generated by new atomic code, or converted to UPF format
     Using radial grid of  615 points,  1 beta functions with: 
                l(1) =   0
     Q(r) pseudized with  8 coefficients,  rinner =    0.800

     PseudoPot. # 2 for O  read from file:
     ./O.pbe-van_ak.UPF
     MD5 check sum: 78c19812648e8988a0fe644b0f25305e
     Pseudo is Ultrasoft, Zval =  6.0
     Generated by new atomic code, or converted to UPF format
     Using radial grid of  737 points,  4 beta functions with: 
                l(1) =   0
                l(2) =   0
                l(3) =   1
                l(4) =   1
     Q(r) pseudized with  8 coefficients,  rinner =    0.800   0.800   0.800


     atomic species   valence    mass     pseudopotential
     H                 1.00     1.00800     H ( 1.00)
     O                 6.00    16.00000     O ( 1.00)

      2 Sym. Ops. (no inversion) found



   Cartesian axes

     site n.     atom                  positions (alat units)
         1        O      tau(   1) = (   0.0000000   1.1515127   0.1027092  )
         2        O      tau(   2) = (   0.0000000   0.5806063   0.9165697  )
         3        O      tau(   3) = (   0.5000000   0.2854532   0.1027092  )
         4        O      tau(   4) = (   0.5000000   1.4466659   0.9165697  )
         5        O      tau(   5) = (   0.5000000   1.4298643   1.5250118  )
         6        O      tau(   6) = (   0.5000000   0.3022548   0.7111513  )
         7        O      tau(   7) = (   0.0000000   0.5638048   1.5250118  )
         8        O      tau(   8) = (   0.0000000   1.1683143   0.7111513  )
         9        H      tau(   9) = (   0.0000000   1.1494343   0.3195216  )
        10        H      tau(  10) = (   0.0000000   0.5826848   1.1333822  )
        11        H      tau(  11) = (   0.5000000   0.2833747   0.3195216  )
        12        H      tau(  12) = (   0.5000000   1.4487443   1.1333822  )
        13        H      tau(  13) = (   0.0000000   0.9289355   0.0297873  )
        14        H      tau(  14) = (   0.0000000   0.8031836   0.8436478  )
        15        H      tau(  15) = (   0.5000000   0.0628759   0.0297873  )
        16        H      tau(  16) = (   0.5000000   1.6692431   0.8436478  )
        17        H      tau(  17) = (   0.6766000   1.3420459   1.5979337  )
        18        H      tau(  18) = (   0.3234000   0.3900732   0.7840732  )
        19        H      tau(  19) = (   0.6766000   0.3900732   0.7840732  )
        20        H      tau(  20) = (   0.3234000   1.3420459   1.5979337  )
        21        H      tau(  21) = (   0.1766000   0.4759863   1.5979337  )
        22        H      tau(  22) = (   0.8234000   1.2561327   0.7840732  )
        23        H      tau(  23) = (   0.1766000   1.2561327   0.7840732  )
        24        H      tau(  24) = (   0.8234000   0.4759863   1.5979337  )

     number of k points=   460

     Number of k-points >= 100: set verbosity='high' to print them.

     Dense  grid:   222811 G-vectors     FFT dimensions: (  54,  96,  90)

     Estimated max dynamical RAM per process >      58.10 MB

     Estimated total dynamical RAM >       7.10 GB

     Initial potential from superposition of free atoms

     starting charge      63.9998, renormalised to      64.0000
     Starting wfcs are   48 randomized atomic wfcs

     total cpu time spent up to now is        5.4 secs

     per-process dynamical memory:    66.2 Mb

     Self-consistent Calculation

     iteration #  1     ecut=    90.00 Ry     beta= 0.70
     Davidson diagonalization with overlap
     ethr =  1.00E-02,  avg # of iterations =  2.0

     total cpu time spent up to now is       15.1 secs

     total energy              =    -274.80312302 Ry
     estimated scf accuracy    <       2.68508123 Ry

     iteration #  2     ecut=    90.00 Ry     beta= 0.70
     Davidson diagonalization with overlap
     ethr =  4.20E-03,  avg # of iterations =  3.0

     total cpu time spent up to now is       28.2 secs

     total energy              =    -275.62343572 Ry
     estimated scf accuracy    <       1.89190392 Ry

     iteration #  3     ecut=    90.00 Ry     beta= 0.70
     Davidson diagonalization with overlap
     ethr =  2.96E-03,  avg # of iterations =  2.0

     total cpu time spent up to now is       38.1 secs

     total energy              =    -275.88287766 Ry
     estimated scf accuracy    <       0.07515850 Ry

     iteration #  4     ecut=    90.00 Ry     beta= 0.70
     Davidson diagonalization with overlap
     ethr =  1.17E-04,  avg # of iterations =  4.0

     total cpu time spent up to now is       52.9 secs

     total energy              =    -275.94260495 Ry
     estimated scf accuracy    <       0.09045602 Ry

     iteration #  5     ecut=    90.00 Ry     beta= 0.70
     Davidson diagonalization with overlap
     ethr =  1.17E-04,  avg # of iterations =  2.0

     total cpu time spent up to now is       61.2 secs

     total energy              =    -275.94629150 Ry
     estimated scf accuracy    <       0.01474602 Ry

     iteration #  6     ecut=    90.00 Ry     beta= 0.70
     Davidson diagonalization with overlap
     ethr =  2.30E-05,  avg # of iterations =  2.0

     negative rho (up, down):  2.460E-08 0.000E+00

     total cpu time spent up to now is       69.7 secs

     total energy              =    -275.94415112 Ry
     estimated scf accuracy    <       0.00676862 Ry

     iteration #  7     ecut=    90.00 Ry     beta= 0.70
     Davidson diagonalization with overlap
     ethr =  1.06E-05,  avg # of iterations =  3.0

     negative rho (up, down):  4.993E-08 0.000E+00

     total cpu time spent up to now is       81.7 secs

     total energy              =    -275.94685519 Ry
     estimated scf accuracy    <       0.00022206 Ry

     iteration #  8     ecut=    90.00 Ry     beta= 0.70
     Davidson diagonalization with overlap
     ethr =  3.47E-07,  avg # of iterations =  3.9

     negative rho (up, down):  2.643E-08 0.000E+00

     total cpu time spent up to now is       95.6 secs

     total energy              =    -275.94675389 Ry
     estimated scf accuracy    <       0.00130106 Ry

     iteration #  9     ecut=    90.00 Ry     beta= 0.70
     Davidson diagonalization with overlap
     ethr =  3.47E-07,  avg # of iterations =  2.0

     total cpu time spent up to now is      105.4 secs

     total energy              =    -275.94656108 Ry
     estimated scf accuracy    <       0.00053258 Ry

     iteration # 10     ecut=    90.00 Ry     beta= 0.70
     Davidson diagonalization with overlap
     ethr =  3.47E-07,  avg # of iterations =  3.0

     total cpu time spent up to now is      117.6 secs

     total energy              =    -275.94665729 Ry
     estimated scf accuracy    <       0.00000956 Ry

     iteration # 11     ecut=    90.00 Ry     beta= 0.70
     Davidson diagonalization with overlap
     ethr =  1.49E-08,  avg # of iterations =  3.2

     total cpu time spent up to now is      130.3 secs

     total energy              =    -275.94666350 Ry
     estimated scf accuracy    <       0.00000031 Ry

     iteration # 12     ecut=    90.00 Ry     beta= 0.70
     Davidson diagonalization with overlap
     ethr =  4.91E-10,  avg # of iterations =  4.9

     total cpu time spent up to now is      144.9 secs

     End of self-consistent calculation

     Number of k-points >= 100: set verbosity='high' to print the bands.

     highest occupied level (ev):    -3.7936

!    total energy              =    -275.94666375 Ry
     estimated scf accuracy    <       0.00000006 Ry

     The total energy is the sum of the following terms:
     one-electron contribution =    -247.36822163 Ry
     hartree contribution      =     143.26339690 Ry
     xc contribution           =     -67.32493928 Ry
     ewald contribution        =    -104.51689974 Ry

     convergence has been achieved in  12 iterations

     Forces acting on atoms (cartesian axes, Ry/au):

     atom    1 type  2   force =     0.00000000   -0.08692390   -0.01944010
     atom    2 type  2   force =     0.00000000    0.08692387   -0.01943971
     atom    3 type  2   force =     0.00000000   -0.08692397   -0.01944048
     atom    4 type  2   force =     0.00000000    0.08692389   -0.01943981
     atom    5 type  2   force =     0.00000000    0.05758801   -0.03161916
     atom    6 type  2   force =     0.00000000   -0.05758791   -0.03161912
     atom    7 type  2   force =     0.00000000    0.05758829   -0.03161922
     atom    8 type  2   force =     0.00000000   -0.05758813   -0.03161916
     atom    9 type  1   force =     0.00000000   -0.00565188   -0.02128854
     atom   10 type  1   force =     0.00000000    0.00565187   -0.02128907
     atom   11 type  1   force =     0.00000000   -0.00565189   -0.02128859
     atom   12 type  1   force =     0.00000000    0.00565190   -0.02128922
     atom   13 type  1   force =     0.00000000    0.09093515    0.03574006
     atom   14 type  1   force =     0.00000000   -0.09093517    0.03574003
     atom   15 type  1   force =     0.00000000    0.09093546    0.03574017
     atom   16 type  1   force =     0.00000000   -0.09093532    0.03574009
     atom   17 type  1   force =     0.01054034   -0.02749949    0.01830404
     atom   18 type  1   force =    -0.01054022    0.02749940    0.01830396
     atom   19 type  1   force =     0.01054022    0.02749940    0.01830396
     atom   20 type  1   force =    -0.01054034   -0.02749949    0.01830404
     atom   21 type  1   force =     0.01054023   -0.02749938    0.01830399
     atom   22 type  1   force =    -0.01054015    0.02749933    0.01830392
     atom   23 type  1   force =     0.01054015    0.02749933    0.01830392
     atom   24 type  1   force =    -0.01054023   -0.02749938    0.01830399

     Total force =     0.314237     Total SCF correction =     0.000166


     Computing stress (Cartesian axis) and pressure

          total   stress  (Ry/bohr**3)                   (kbar)     P=      -37.11
  -0.00005104   0.00000000   0.00000000           -7.51        0.00        0.00
   0.00000000  -0.00049873   0.00000000            0.00      -73.37        0.00
   0.00000000   0.00000000  -0.00020700            0.00        0.00      -30.45


     BFGS Geometry Optimization
     Energy error            =      0.0E+00 Ry
     Gradient error          =      9.1E-02 Ry/Bohr

     number of scf cycles    =   1
     number of bfgs steps    =   0

     energy             new  =    -275.9466637539 Ry

     new trust radius        =       0.0977067882 bohr
     new conv_thr            =       0.0000001000 Ry


ATOMIC_POSITIONS (crystal)
O                0.0000000000        0.6591062513        0.0617449558
O                0.0000000000        0.3408937470        0.5617449599
O                0.5000000000        0.1591062470        0.0617449293
O                0.5000000000        0.8408937479        0.5617449532
O                0.5000000000        0.8292721724        0.9346960472
O                0.5000000000        0.1707278344        0.4346960196
O                0.0000000000        0.3292721903        0.9346960425
O                0.0000000000        0.6707278196        0.4346960169
H                0.0000000000        0.6632298157        0.1948161099
H                0.0000000000        0.3367701839        0.6948161029
H                0.5000000000        0.1632298146        0.1948161059
H                0.5000000000        0.8367701859        0.6948160920
H                0.0000000000        0.5422564880        0.0207912162
H                0.0000000000        0.4577435111        0.5207912102
H                0.5000000000        0.0422565078        0.0207912235
H                0.5000000000        0.9577435013        0.5207912143
H                0.6777958666        0.7729987166        0.9829758629
H                0.3222041471        0.2270012776        0.4829758570
H                0.6777958529        0.2270012776        0.4829758570
H                0.3222041334        0.7729987166        0.9829758629
H                0.1777958550        0.2729987234        0.9829758590
H                0.8222041542        0.7270012732        0.4829758545
H                0.1777958458        0.7270012732        0.4829758545
H                0.8222041450        0.2729987234        0.9829758590



     Writing config-only to output data dir ./iceIh/iceIh.save/ :
     XML data file
     NEW-OLD atomic charge density approx. for the potential

     total cpu time spent up to now is      155.8 secs

     per-process dynamical memory:    71.1 Mb

     Self-consistent Calculation

     iteration #  1     ecut=    90.00 Ry     beta= 0.70
     Davidson diagonalization with overlap
     ethr =  1.00E-06,  avg # of iterations =  9.0

     negative rho (up, down):  1.849E-08 0.000E+00

     total cpu time spent up to now is      183.2 secs

     total energy              =    -275.98553330 Ry
     estimated scf accuracy    <       0.02363985 Ry

     iteration #  2     ecut=    90.00 Ry     beta= 0.70
     Davidson diagonalization with overlap
     ethr =  3.69E-05,  avg # of iterations =  3.0

     total cpu time spent up to now is      195.4 secs

     total energy              =    -275.99025521 Ry
     estimated scf accuracy    <       0.01262918 Ry

     iteration #  3     ecut=    90.00 Ry     beta= 0.70
     Davidson diagonalization with overlap
     ethr =  1.97E-05,  avg # of iterations =  2.6

     total cpu time spent up to now is      205.8 secs

     total energy              =    -275.99311664 Ry
     estimated scf accuracy    <       0.00016640 Ry

     iteration #  4     ecut=    90.00 Ry     beta= 0.70
     Davidson diagonalization with overlap
     ethr =  2.60E-07,  avg # of iterations =  5.5

     total cpu time spent up to now is      223.4 secs

     total energy              =    -275.99311749 Ry
     estimated scf accuracy    <       0.00046158 Ry

     iteration #  5     ecut=    90.00 Ry     beta= 0.70
     Davidson diagonalization with overlap
     ethr =  2.60E-07,  avg # of iterations =  4.0

     total cpu time spent up to now is      238.0 secs

     total energy              =    -275.99328212 Ry
     estimated scf accuracy    <       0.00009004 Ry

     iteration #  6     ecut=    90.00 Ry     beta= 0.70
     Davidson diagonalization with overlap
     ethr =  1.41E-07,  avg # of iterations =  1.0

     total cpu time spent up to now is      245.4 secs

     total energy              =    -275.99327010 Ry
     estimated scf accuracy    <       0.00003993 Ry

     iteration #  7     ecut=    90.00 Ry     beta= 0.70
     Davidson diagonalization with overlap
     ethr =  6.24E-08,  avg # of iterations =  2.0

     total cpu time spent up to now is      254.8 secs

     total energy              =    -275.99327521 Ry
     estimated scf accuracy    <       0.00000251 Ry

     iteration #  8     ecut=    90.00 Ry     beta= 0.70
     Davidson diagonalization with overlap
     ethr =  3.92E-09,  avg # of iterations =  3.3

     total cpu time spent up to now is      266.7 secs

     End of self-consistent calculation

     Number of k-points >= 100: set verbosity='high' to print the bands.

     highest occupied level (ev):    -3.9268

!    total energy              =    -275.99327624 Ry
     estimated scf accuracy    <       0.00000007 Ry

     The total energy is the sum of the following terms:
     one-electron contribution =    -248.09895944 Ry
     hartree contribution      =     143.60221638 Ry
     xc contribution           =     -67.39836719 Ry
     ewald contribution        =    -104.09816600 Ry

     convergence has been achieved in   8 iterations

     Forces acting on atoms (cartesian axes, Ry/au):

     atom    1 type  2   force =     0.00000000    0.02439411    0.01314148
     atom    2 type  2   force =     0.00000000   -0.02439406    0.01314134
     atom    3 type  2   force =     0.00000000    0.02439449    0.01314189
     atom    4 type  2   force =     0.00000000   -0.02439419    0.01314136
     atom    5 type  2   force =     0.00000000   -0.00659551    0.01116142
     atom    6 type  2   force =     0.00000000    0.00659546    0.01116142
     atom    7 type  2   force =     0.00000000   -0.00659556    0.01116147
     atom    8 type  2   force =     0.00000000    0.00659552    0.01116149
     atom    9 type  1   force =     0.00000000   -0.01060121   -0.01834862
     atom   10 type  1   force =     0.00000000    0.01060122   -0.01834850
     atom   11 type  1   force =     0.00000000   -0.01060119   -0.01834884
     atom   12 type  1   force =     0.00000000    0.01060120   -0.01834846
     atom   13 type  1   force =     0.00000000   -0.00706263    0.00594585
     atom   14 type  1   force =     0.00000000    0.00706257    0.00594587
     atom   15 type  1   force =     0.00000000   -0.00706300    0.00594570
     atom   16 type  1   force =     0.00000000    0.00706272    0.00594581
     atom   17 type  1   force =    -0.02746478    0.00002389   -0.00595008
     atom   18 type  1   force =     0.02746472   -0.00002388   -0.00595008
     atom   19 type  1   force =    -0.02746472   -0.00002388   -0.00595008
     atom   20 type  1   force =     0.02746478    0.00002389   -0.00595008
     atom   21 type  1   force =    -0.02746475    0.00002391   -0.00595009
     atom   22 type  1   force =     0.02746472   -0.00002390   -0.00595009
     atom   23 type  1   force =    -0.02746472   -0.00002390   -0.00595009
     atom   24 type  1   force =     0.02746475    0.00002391   -0.00595009

     Total force =     0.110446     Total SCF correction =     0.000462


     Computing stress (Cartesian axis) and pressure

          total   stress  (Ry/bohr**3)                   (kbar)     P=      -32.51
  -0.00031889   0.00000000   0.00000000          -46.91        0.00        0.00
   0.00000000  -0.00011627   0.00000000            0.00      -17.10        0.00
   0.00000000   0.00000000  -0.00022784            0.00        0.00      -33.52

     Energy error            =      4.7E-02 Ry
     Gradient error          =      2.7E-02 Ry/Bohr

     number of scf cycles    =   2
     number of bfgs steps    =   1

     energy             old  =    -275.9466637539 Ry
     energy             new  =    -275.9932762412 Ry

     CASE: energy            _new < energy            _old

     new trust radius        =       0.0233498419 bohr
     new conv_thr            =       0.0000000275 Ry


ATOMIC_POSITIONS (crystal)
O                0.0000000000        0.6600670729        0.0624364913
O                0.0000000000        0.3399329280        0.5624364891
O                0.5000000000        0.1600670901        0.0624364875
O                0.5000000000        0.8399329214        0.5624364833
O                0.5000000000        0.8291769865        0.9352057545
O                0.5000000000        0.1708230182        0.4352057272
O                0.0000000000        0.3291770028        0.9352057527
O                0.0000000000        0.6708230060        0.4352057283
H                0.0000000000        0.6626025604        0.1936016981
H                0.0000000000        0.3373974397        0.6936016952
H                0.5000000000        0.1626025603        0.1936016803
H                0.5000000000        0.8373974408        0.6936016863
H                0.0000000000        0.5422958915        0.0213329465
H                0.0000000000        0.4577041044        0.5213329418
H                0.5000000000        0.0422958915        0.0213329452
H                0.5000000000        0.9577041021        0.5213329426
H                0.6751917267        0.7728672802        0.9827115823
H                0.3248082821        0.2271327147        0.4827115760
H                0.6751917179        0.2271327147        0.4827115760
H                0.3248082733        0.7728672802        0.9827115823
H                0.1751917170        0.2728672883        0.9827115773
H                0.8248082896        0.7271327087        0.4827115724
H                0.1751917104        0.7271327087        0.4827115724
H                0.8248082830        0.2728672883        0.9827115773



     Writing config-only to output data dir ./iceIh/iceIh.save/ :
     XML data file
     NEW-OLD atomic charge density approx. for the potential

     total cpu time spent up to now is      277.7 secs

     per-process dynamical memory:    73.2 Mb

     Self-consistent Calculation

     iteration #  1     ecut=    90.00 Ry     beta= 0.70
     Davidson diagonalization with overlap
     ethr =  1.00E-06,  avg # of iterations =  5.0

     negative rho (up, down):  5.006E-08 0.000E+00

     total cpu time spent up to now is      294.7 secs

     total energy              =    -275.99926460 Ry
     estimated scf accuracy    <       0.00099039 Ry

     iteration #  2     ecut=    90.00 Ry     beta= 0.70
     Davidson diagonalization with overlap
     ethr =  1.55E-06,  avg # of iterations =  3.0

     negative rho (up, down):  5.083E-08 0.000E+00

     total cpu time spent up to now is      306.4 secs

     total energy              =    -275.99948734 Ry
     estimated scf accuracy    <       0.00023332 Ry

     iteration #  3     ecut=    90.00 Ry     beta= 0.70
     Davidson diagonalization with overlap
     ethr =  3.65E-07,  avg # of iterations =  3.0

     negative rho (up, down):  5.398E-08 0.000E+00

     total cpu time spent up to now is      317.1 secs

     total energy              =    -275.99953637 Ry
     estimated scf accuracy    <       0.00000687 Ry

     iteration #  4     ecut=    90.00 Ry     beta= 0.70
     Davidson diagonalization with overlap
     ethr =  1.07E-08,  avg # of iterations =  2.6

     negative rho (up, down):  5.621E-08 0.000E+00

     total cpu time spent up to now is      328.0 secs

     total energy              =    -275.99953777 Ry
     estimated scf accuracy    <       0.00000145 Ry

     iteration #  5     ecut=    90.00 Ry     beta= 0.70
     Davidson diagonalization with overlap
     ethr =  2.27E-09,  avg # of iterations =  2.0

     negative rho (up, down):  5.651E-08 0.000E+00

     total cpu time spent up to now is      338.7 secs

     total energy              =    -275.99953811 Ry
     estimated scf accuracy    <       0.00000011 Ry

     iteration #  6     ecut=    90.00 Ry     beta= 0.70
     Davidson diagonalization with overlap
     ethr =  1.71E-10,  avg # of iterations =  3.1

     negative rho (up, down):  5.624E-08 0.000E+00

     total cpu time spent up to now is      350.6 secs

     total energy              =    -275.99953811 Ry
     estimated scf accuracy    <       0.00000005 Ry

     iteration #  7     ecut=    90.00 Ry     beta= 0.70
     Davidson diagonalization with overlap
     ethr =  8.58E-11,  avg # of iterations =  3.0

     negative rho (up, down):  5.626E-08 0.000E+00

     total cpu time spent up to now is      362.1 secs

     End of self-consistent calculation

     Number of k-points >= 100: set verbosity='high' to print the bands.

     highest occupied level (ev):    -3.9454

!    total energy              =    -275.99953813 Ry
     estimated scf accuracy    <          4.9E-09 Ry

     The total energy is the sum of the following terms:
     one-electron contribution =    -249.07945228 Ry
     hartree contribution      =     144.04562672 Ry
     xc contribution           =     -67.49223263 Ry
     ewald contribution        =    -103.47347993 Ry

     convergence has been achieved in   7 iterations

     Forces acting on atoms (cartesian axes, Ry/au):

     atom    1 type  2   force =     0.00000000    0.00804172   -0.01017889
     atom    2 type  2   force =     0.00000000   -0.00804176   -0.01017887
     atom    3 type  2   force =     0.00000000    0.00804148   -0.01017910
     atom    4 type  2   force =     0.00000000   -0.00804171   -0.01017890
     atom    5 type  2   force =     0.00000000    0.00596078    0.00209591
     atom    6 type  2   force =     0.00000000   -0.00596078    0.00209594
     atom    7 type  2   force =     0.00000000    0.00596076    0.00209590
     atom    8 type  2   force =     0.00000000   -0.00596078    0.00209592
     atom    9 type  1   force =     0.00000000   -0.00769894    0.00139687
     atom   10 type  1   force =     0.00000000    0.00769895    0.00139688
     atom   11 type  1   force =     0.00000000   -0.00769890    0.00139704
     atom   12 type  1   force =     0.00000000    0.00769892    0.00139691
     atom   13 type  1   force =     0.00000000    0.00431086    0.00796475
     atom   14 type  1   force =     0.00000000   -0.00431083    0.00796474
     atom   15 type  1   force =     0.00000000    0.00431104    0.00796478
     atom   16 type  1   force =     0.00000000   -0.00431085    0.00796473
     atom   17 type  1   force =    -0.01305364   -0.00517676   -0.00063932
     atom   18 type  1   force =     0.01305362    0.00517676   -0.00063934
     atom   19 type  1   force =    -0.01305362    0.00517676   -0.00063934
     atom   20 type  1   force =     0.01305364   -0.00517676   -0.00063932
     atom   21 type  1   force =    -0.01305361   -0.00517675   -0.00063932
     atom   22 type  1   force =     0.01305359    0.00517676   -0.00063933
     atom   23 type  1   force =    -0.01305359    0.00517676   -0.00063933
     atom   24 type  1   force =     0.01305361   -0.00517675   -0.00063932

     Total force =     0.054650     Total SCF correction =     0.000066


     Computing stress (Cartesian axis) and pressure

          total   stress  (Ry/bohr**3)                   (kbar)     P=      -23.27
  -0.00021627   0.00000000   0.00000000          -31.81        0.00        0.00
   0.00000000  -0.00013728  -0.00000000            0.00      -20.19       -0.00
   0.00000000  -0.00000000  -0.00012111            0.00       -0.00      -17.82

     Energy error            =      6.3E-03 Ry
     Gradient error          =      1.3E-02 Ry/Bohr

     number of scf cycles    =   3
     number of bfgs steps    =   2

     energy             old  =    -275.9932762412 Ry
     energy             new  =    -275.9995381292 Ry

     CASE: energy            _new < energy            _old

     new trust radius        =       0.0324110494 bohr
     new conv_thr            =       0.0000000131 Ry


ATOMIC_POSITIONS (crystal)
O                0.0000000000        0.6610764198        0.0616810948
O                0.0000000000        0.3389235784        0.5616810927
O                0.5000000000        0.1610764250        0.0616810800
O                0.5000000000        0.8389235731        0.5616810844
O                0.5000000000        0.8298845097        0.9355824775
O                0.5000000000        0.1701154947        0.4355824542
O                0.0000000000        0.3298845238        0.9355824760
O                0.0000000000        0.6701154832        0.4355824549
H                0.0000000000        0.6615122900        0.1930443370
H                0.0000000000        0.3384877112        0.6930443347
H                0.5000000000        0.1615122938        0.1930443294
H                0.5000000000        0.8384877098        0.6930443304
H                0.0000000000        0.5430169153        0.0225546652
H                0.0000000000        0.4569830820        0.5225546603
H                0.5000000000        0.0430169234        0.0225546630
H                0.5000000000        0.9569830808        0.5225546584
H                0.6717020125        0.7722114687        0.9825687404
H                0.3282979913        0.2277885263        0.4825687323
H                0.6717020087        0.2277885263        0.4825687323
H                0.3282979875        0.7722114687        0.9825687404
H                0.1717020085        0.2722114783        0.9825687351
H                0.8282979939        0.7277885196        0.4825687288
H                0.1717020061        0.7277885196        0.4825687288
H                0.8282979915        0.2722114783        0.9825687351



     Writing config-only to output data dir ./iceIh/iceIh.save/ :
     XML data file
     NEW-OLD atomic charge density approx. for the potential

     negative rho (up, down):  4.274E-08 0.000E+00

     total cpu time spent up to now is      373.1 secs

     per-process dynamical memory:    73.4 Mb

     Self-consistent Calculation

     iteration #  1     ecut=    90.00 Ry     beta= 0.70
     Davidson diagonalization with overlap
     ethr =  1.00E-06,  avg # of iterations =  5.1

     negative rho (up, down):  9.215E-08 0.000E+00

     total cpu time spent up to now is      390.2 secs

     total energy              =    -276.00311505 Ry
     estimated scf accuracy    <       0.00056470 Ry

     iteration #  2     ecut=    90.00 Ry     beta= 0.70
     Davidson diagonalization with overlap
     ethr =  8.82E-07,  avg # of iterations =  3.0

     negative rho (up, down):  9.747E-08 0.000E+00

     total cpu time spent up to now is      401.3 secs

     total energy              =    -276.00320540 Ry
     estimated scf accuracy    <       0.00016109 Ry

     iteration #  3     ecut=    90.00 Ry     beta= 0.70
     Davidson diagonalization with overlap
     ethr =  2.52E-07,  avg # of iterations =  3.3

     negative rho (up, down):  1.033E-07 0.000E+00

     total cpu time spent up to now is      412.5 secs

     total energy              =    -276.00324813 Ry
     estimated scf accuracy    <       0.00001356 Ry

     iteration #  4     ecut=    90.00 Ry     beta= 0.70
     Davidson diagonalization with overlap
     ethr =  2.12E-08,  avg # of iterations =  2.0

     negative rho (up, down):  1.046E-07 0.000E+00

     total cpu time spent up to now is      421.7 secs

     total energy              =    -276.00324958 Ry
     estimated scf accuracy    <       0.00000111 Ry

     iteration #  5     ecut=    90.00 Ry     beta= 0.70
     Davidson diagonalization with overlap
     ethr =  1.74E-09,  avg # of iterations =  4.0

     negative rho (up, down):  1.045E-07 0.000E+00

     total cpu time spent up to now is      433.6 secs

     total energy              =    -276.00325005 Ry
     estimated scf accuracy    <       0.00000015 Ry

     iteration #  6     ecut=    90.00 Ry     beta= 0.70
     Davidson diagonalization with overlap
     ethr =  2.27E-10,  avg # of iterations =  2.0

     negative rho (up, down):  1.045E-07 0.000E+00

     total cpu time spent up to now is      442.6 secs

     total energy              =    -276.00325005 Ry
     estimated scf accuracy    <       0.00000002 Ry

     iteration #  7     ecut=    90.00 Ry     beta= 0.70
     Davidson diagonalization with overlap
     ethr =  3.38E-11,  avg # of iterations =  4.4

     negative rho (up, down):  1.046E-07 0.000E+00

     total cpu time spent up to now is      456.1 secs

     End of self-consistent calculation

     Number of k-points >= 100: set verbosity='high' to print the bands.

     highest occupied level (ev):    -3.9604

!    total energy              =    -276.00325006 Ry
     estimated scf accuracy    <          8.8E-09 Ry

     The total energy is the sum of the following terms:
     one-electron contribution =    -249.77036172 Ry
     hartree contribution      =     144.35207952 Ry
     xc contribution           =     -67.55698588 Ry
     ewald contribution        =    -103.02798198 Ry

     convergence has been achieved in   7 iterations

     Forces acting on atoms (cartesian axes, Ry/au):

     atom    1 type  2   force =     0.00000000    0.00447593   -0.00214293
     atom    2 type  2   force =     0.00000000   -0.00447592   -0.00214292
     atom    3 type  2   force =     0.00000000    0.00447598   -0.00214281
     atom    4 type  2   force =     0.00000000   -0.00447588   -0.00214288
     atom    5 type  2   force =     0.00000000    0.01288303   -0.00422680
     atom    6 type  2   force =     0.00000000   -0.01288304   -0.00422679
     atom    7 type  2   force =     0.00000000    0.01288303   -0.00422680
     atom    8 type  2   force =     0.00000000   -0.01288303   -0.00422679
     atom    9 type  1   force =     0.00000000   -0.00283033   -0.00074471
     atom   10 type  1   force =     0.00000000    0.00283033   -0.00074471
     atom   11 type  1   force =     0.00000000   -0.00283031   -0.00074479
     atom   12 type  1   force =     0.00000000    0.00283031   -0.00074475
     atom   13 type  1   force =     0.00000000    0.00213793    0.00254978
     atom   14 type  1   force =     0.00000000   -0.00213793    0.00254978
     atom   15 type  1   force =     0.00000000    0.00213786    0.00254974
     atom   16 type  1   force =     0.00000000   -0.00213796    0.00254977
     atom   17 type  1   force =     0.00247131   -0.00793069    0.00228233
     atom   18 type  1   force =    -0.00247132    0.00793069    0.00228232
     atom   19 type  1   force =     0.00247132    0.00793069    0.00228232
     atom   20 type  1   force =    -0.00247131   -0.00793069    0.00228233
     atom   21 type  1   force =     0.00247133   -0.00793069    0.00228233
     atom   22 type  1   force =    -0.00247133    0.00793069    0.00228232
     atom   23 type  1   force =     0.00247133    0.00793069    0.00228232
     atom   24 type  1   force =    -0.00247133   -0.00793069    0.00228233

     Total force =     0.038809     Total SCF correction =     0.000055


     Computing stress (Cartesian axis) and pressure

          total   stress  (Ry/bohr**3)                   (kbar)     P=      -15.95
  -0.00011189   0.00000000   0.00000000          -16.46        0.00        0.00
   0.00000000  -0.00010293   0.00000000            0.00      -15.14        0.00
   0.00000000   0.00000000  -0.00011054            0.00        0.00      -16.26

     Energy error            =      3.7E-03 Ry
     Gradient error          =      1.3E-02 Ry/Bohr

     number of scf cycles    =   4
     number of bfgs steps    =   3

     energy             old  =    -275.9995381292 Ry
     energy             new  =    -276.0032500597 Ry

     CASE: energy            _new < energy            _old

     new trust radius        =       0.0193636105 bohr
     new conv_thr            =       0.0000000129 Ry


ATOMIC_POSITIONS (crystal)
O                0.0000000000        0.6619911344        0.0614580884
O                0.0000000000        0.3380088641        0.5614580855
O                0.5000000000        0.1619911465        0.0614580877
O                0.5000000000        0.8380088609        0.5614580810
O                0.5000000000        0.8311467858        0.9354503924
O                0.5000000000        0.1688532168        0.4354503714
O                0.0000000000        0.3311467988        0.9354503917
O                0.0000000000        0.6688532069        0.4354503734
H                0.0000000000        0.6607884219        0.1924816187
H                0.0000000000        0.3392115800        0.6924816176
H                0.5000000000        0.1607884282        0.1924816033
H                0.5000000000        0.8392115765        0.6924816116
H                0.0000000000        0.5434285910        0.0232883933
H                0.0000000000        0.4565714054        0.5232883886
H                0.5000000000        0.0434285904        0.0232883854
H                0.5000000000        0.9565714041        0.5232883847
H                0.6703405011        0.7713199737        0.9826607808
H                0.3296594980        0.2286800221        0.4826607717
H                0.6703405020        0.2286800221        0.4826607717
H                0.3296594989        0.7713199737        0.9826607808
H                0.1703405015        0.2713199839        0.9826607752
H                0.8296594983        0.7286800145        0.4826607681
H                0.1703405017        0.7286800145        0.4826607681
H                0.8296594985        0.2713199839        0.9826607752



     Writing config-only to output data dir ./iceIh/iceIh.save/ :
     XML data file
     NEW-OLD atomic charge density approx. for the potential

     negative rho (up, down):  9.419E-08 0.000E+00

     total cpu time spent up to now is      467.0 secs

     per-process dynamical memory:    73.4 Mb

     Self-consistent Calculation

     iteration #  1     ecut=    90.00 Ry     beta= 0.70
     Davidson diagonalization with overlap
     ethr =  1.00E-06,  avg # of iterations =  4.0

     negative rho (up, down):  1.345E-07 0.000E+00

     total cpu time spent up to now is      483.4 secs

     total energy              =    -276.00432759 Ry
     estimated scf accuracy    <       0.00036371 Ry

     iteration #  2     ecut=    90.00 Ry     beta= 0.70
     Davidson diagonalization with overlap
     ethr =  5.68E-07,  avg # of iterations =  3.0

     negative rho (up, down):  1.818E-07 0.000E+00

     total cpu time spent up to now is      495.1 secs

     total energy              =    -276.00439389 Ry
     estimated scf accuracy    <       0.00009655 Ry

     iteration #  3     ecut=    90.00 Ry     beta= 0.70
     Davidson diagonalization with overlap
     ethr =  1.51E-07,  avg # of iterations =  2.8

     negative rho (up, down):  2.151E-07 0.000E+00

     total cpu time spent up to now is      505.8 secs

     total energy              =    -276.00441741 Ry
     estimated scf accuracy    <       0.00000612 Ry

     iteration #  4     ecut=    90.00 Ry     beta= 0.70
     Davidson diagonalization with overlap
     ethr =  9.56E-09,  avg # of iterations =  2.0

     negative rho (up, down):  2.225E-07 0.000E+00

     total cpu time spent up to now is      515.6 secs

     total energy              =    -276.00441803 Ry
     estimated scf accuracy    <       0.00000133 Ry

     iteration #  5     ecut=    90.00 Ry     beta= 0.70
     Davidson diagonalization with overlap
     ethr =  2.08E-09,  avg # of iterations =  2.2

     negative rho (up, down):  2.265E-07 0.000E+00

     total cpu time spent up to now is      526.0 secs

     total energy              =    -276.00441825 Ry
     estimated scf accuracy    <       0.00000009 Ry

     iteration #  6     ecut=    90.00 Ry     beta= 0.70
     Davidson diagonalization with overlap
     ethr =  1.42E-10,  avg # of iterations =  4.4

     negative rho (up, down):  2.291E-07 0.000E+00

     total cpu time spent up to now is      539.4 secs

     total energy              =    -276.00441828 Ry
     estimated scf accuracy    <       0.00000006 Ry

     iteration #  7     ecut=    90.00 Ry     beta= 0.70
     Davidson diagonalization with overlap
     ethr =  8.62E-11,  avg # of iterations =  3.0

     negative rho (up, down):  2.290E-07 0.000E+00

     total cpu time spent up to now is      550.7 secs

     End of self-consistent calculation

     Number of k-points >= 100: set verbosity='high' to print the bands.

     highest occupied level (ev):    -3.9704

!    total energy              =    -276.00441829 Ry
     estimated scf accuracy    <          1.8E-09 Ry

     The total energy is the sum of the following terms:
     one-electron contribution =    -249.59695420 Ry
     hartree contribution      =     144.26454565 Ry
     xc contribution           =     -67.53822768 Ry
     ewald contribution        =    -103.13378206 Ry

     convergence has been achieved in   7 iterations

     Forces acting on atoms (cartesian axes, Ry/au):

     atom    1 type  2   force =     0.00000000   -0.00189979   -0.00451890
     atom    2 type  2   force =     0.00000000    0.00189978   -0.00451886
     atom    3 type  2   force =     0.00000000   -0.00189997   -0.00451913
     atom    4 type  2   force =     0.00000000    0.00189980   -0.00451888
     atom    5 type  2   force =     0.00000000    0.00193633    0.00347206
     atom    6 type  2   force =     0.00000000   -0.00193631    0.00347209
     atom    7 type  2   force =     0.00000000    0.00193631    0.00347205
     atom    8 type  2   force =     0.00000000   -0.00193631    0.00347207
     atom    9 type  1   force =     0.00000000    0.00063486    0.00382465
     atom   10 type  1   force =     0.00000000   -0.00063486    0.00382462
     atom   11 type  1   force =     0.00000000    0.00063486    0.00382482
     atom   12 type  1   force =     0.00000000   -0.00063486    0.00382464
     atom   13 type  1   force =     0.00000000    0.00432537   -0.00006901
     atom   14 type  1   force =     0.00000000   -0.00432536   -0.00006902
     atom   15 type  1   force =     0.00000000    0.00432553   -0.00006896
     atom   16 type  1   force =     0.00000000   -0.00432537   -0.00006901
     atom   17 type  1   force =     0.00176000   -0.00197384   -0.00135440
     atom   18 type  1   force =    -0.00175998    0.00197384   -0.00135441
     atom   19 type  1   force =     0.00175998    0.00197384   -0.00135441
     atom   20 type  1   force =    -0.00176000   -0.00197384   -0.00135440
     atom   21 type  1   force =     0.00175999   -0.00197384   -0.00135440
     atom   22 type  1   force =    -0.00175999    0.00197384   -0.00135441
     atom   23 type  1   force =     0.00175999    0.00197384   -0.00135441
     atom   24 type  1   force =    -0.00175999   -0.00197384   -0.00135440

     Total force =     0.019103     Total SCF correction =     0.000042


     Computing stress (Cartesian axis) and pressure

          total   stress  (Ry/bohr**3)                   (kbar)     P=      -17.11
  -0.00012197   0.00000000   0.00000000          -17.94        0.00        0.00
   0.00000000  -0.00012926  -0.00000000            0.00      -19.01       -0.00
   0.00000000  -0.00000000  -0.00009766            0.00       -0.00      -14.37

     Energy error            =      1.2E-03 Ry
     Gradient error          =      4.5E-03 Ry/Bohr

     number of scf cycles    =   5
     number of bfgs steps    =   4

     energy             old  =    -276.0032500597 Ry
     energy             new  =    -276.0044182904 Ry

     CASE: energy            _new < energy            _old

     new trust radius        =       0.0050476547 bohr
     new conv_thr            =       0.0000000045 Ry


ATOMIC_POSITIONS (crystal)
O                0.0000000000        0.6620446846        0.0612406177
O                0.0000000000        0.3379553137        0.5612406167
O                0.5000000000        0.1620446886        0.0612406056
O                0.5000000000        0.8379553114        0.5612406114
O                0.5000000000        0.8313561589        0.9357226972
O                0.5000000000        0.1686438444        0.4357226788
O                0.0000000000        0.3313561706        0.9357226965
O                0.0000000000        0.6686438347        0.4357226801
H                0.0000000000        0.6607511965        0.1926029163
H                0.0000000000        0.3392488055        0.6926029141
H                0.5000000000        0.1607512032        0.1926029099
H                0.5000000000        0.8392488016        0.6926029089
H                0.0000000000        0.5436903194        0.0233337388
H                0.0000000000        0.4563096771        0.5233337339
H                0.5000000000        0.0436903258        0.0233337328
H                0.5000000000        0.9563096755        0.5233337299
H                0.6703346031        0.7711161318        0.9825500418
H                0.3296653972        0.2288838638        0.4825500319
H                0.6703346028        0.2288838638        0.4825500319
H                0.3296653969        0.7711161318        0.9825500418
H                0.1703346037        0.2711161421        0.9825500364
H                0.8296653965        0.7288838565        0.4825500287
H                0.1703346035        0.7288838565        0.4825500287
H                0.8296653963        0.2711161421        0.9825500364



     Writing config-only to output data dir ./iceIh/iceIh.save/ :
     XML data file
     NEW-OLD atomic charge density approx. for the potential

     negative rho (up, down):  2.270E-07 0.000E+00

     total cpu time spent up to now is      561.6 secs

     per-process dynamical memory:    73.4 Mb

     Self-consistent Calculation

     iteration #  1     ecut=    90.00 Ry     beta= 0.70
     Davidson diagonalization with overlap
     ethr =  1.00E-06,  avg # of iterations =  3.0

     Threshold (ethr) on eigenvalues was too large:
     Diagonalizing with lowered threshold

     Davidson diagonalization with overlap
     ethr =  3.86E-08,  avg # of iterations =  2.0

     negative rho (up, down):  2.741E-07 0.000E+00

     total cpu time spent up to now is      582.7 secs

     total energy              =    -276.00461694 Ry
     estimated scf accuracy    <       0.00002778 Ry

     iteration #  2     ecut=    90.00 Ry     beta= 0.70
     Davidson diagonalization with overlap
     ethr =  4.34E-08,  avg # of iterations =  2.0

     negative rho (up, down):  2.926E-07 0.000E+00

     total cpu time spent up to now is      592.5 secs

     total energy              =    -276.00462172 Ry
     estimated scf accuracy    <       0.00000204 Ry

     iteration #  3     ecut=    90.00 Ry     beta= 0.70
     Davidson diagonalization with overlap
     ethr =  3.18E-09,  avg # of iterations =  2.5

     negative rho (up, down):  2.967E-07 0.000E+00

     total cpu time spent up to now is      603.6 secs

     total energy              =    -276.00462226 Ry
     estimated scf accuracy    <       0.00000033 Ry

     iteration #  4     ecut=    90.00 Ry     beta= 0.70
     Davidson diagonalization with overlap
     ethr =  5.21E-10,  avg # of iterations =  2.2

     negative rho (up, down):  2.992E-07 0.000E+00

     total cpu time spent up to now is      613.4 secs

     total energy              =    -276.00462232 Ry
     estimated scf accuracy    <       0.00000002 Ry

     iteration #  5     ecut=    90.00 Ry     beta= 0.70
     Davidson diagonalization with overlap
     ethr =  3.40E-11,  avg # of iterations =  2.5

     negative rho (up, down):  2.996E-07 0.000E+00

     total cpu time spent up to now is      624.5 secs

     total energy              =    -276.00462232 Ry
     estimated scf accuracy    <          6.1E-09 Ry

     iteration #  6     ecut=    90.00 Ry     beta= 0.70
     Davidson diagonalization with overlap
     ethr =  9.51E-12,  avg # of iterations =  2.0

     negative rho (up, down):  2.998E-07 0.000E+00

     total cpu time spent up to now is      633.8 secs

     End of self-consistent calculation

     Number of k-points >= 100: set verbosity='high' to print the bands.

     highest occupied level (ev):    -3.9723

!    total energy              =    -276.00462232 Ry
     estimated scf accuracy    <          6.6E-10 Ry

     The total energy is the sum of the following terms:
     one-electron contribution =    -249.55479907 Ry
     hartree contribution      =     144.24541095 Ry
     xc contribution           =     -67.53384008 Ry
     ewald contribution        =    -103.16139413 Ry

     convergence has been achieved in   6 iterations

     Forces acting on atoms (cartesian axes, Ry/au):

     atom    1 type  2   force =     0.00000000    0.00101056    0.00078393
     atom    2 type  2   force =     0.00000000   -0.00101056    0.00078392
     atom    3 type  2   force =     0.00000000    0.00101060    0.00078401
     atom    4 type  2   force =     0.00000000   -0.00101055    0.00078392
     atom    5 type  2   force =     0.00000000    0.00050018    0.00353298
     atom    6 type  2   force =     0.00000000   -0.00050020    0.00353298
     atom    7 type  2   force =     0.00000000    0.00050019    0.00353297
     atom    8 type  2   force =     0.00000000   -0.00050020    0.00353298
     atom    9 type  1   force =     0.00000000    0.00095073    0.00002033
     atom   10 type  1   force =     0.00000000   -0.00095073    0.00002034
     atom   11 type  1   force =     0.00000000    0.00095073    0.00002027
     atom   12 type  1   force =     0.00000000   -0.00095073    0.00002034
     atom   13 type  1   force =     0.00000000    0.00113935   -0.00122647
     atom   14 type  1   force =     0.00000000   -0.00113935   -0.00122647
     atom   15 type  1   force =     0.00000000    0.00113931   -0.00122648
     atom   16 type  1   force =     0.00000000   -0.00113936   -0.00122646
     atom   17 type  1   force =     0.00130926   -0.00127391   -0.00155539
     atom   18 type  1   force =    -0.00130927    0.00127392   -0.00155539
     atom   19 type  1   force =     0.00130927    0.00127392   -0.00155539
     atom   20 type  1   force =    -0.00130926   -0.00127391   -0.00155539
     atom   21 type  1   force =     0.00130927   -0.00127392   -0.00155539
     atom   22 type  1   force =    -0.00130927    0.00127393   -0.00155539
     atom   23 type  1   force =     0.00130927    0.00127393   -0.00155539
     atom   24 type  1   force =    -0.00130927   -0.00127392   -0.00155539

     Total force =     0.010879     Total SCF correction =     0.000077


     Computing stress (Cartesian axis) and pressure

          total   stress  (Ry/bohr**3)                   (kbar)     P=      -17.48
  -0.00012463   0.00000000   0.00000000          -18.33        0.00        0.00
   0.00000000  -0.00011730   0.00000000            0.00      -17.25        0.00
   0.00000000   0.00000000  -0.00011456            0.00        0.00      -16.85

     Energy error            =      2.0E-04 Ry
     Gradient error          =      3.5E-03 Ry/Bohr

     number of scf cycles    =   6
     number of bfgs steps    =   5

     energy             old  =    -276.0044182904 Ry
     energy             new  =    -276.0046223201 Ry

     CASE: energy            _new < energy            _old

     new trust radius        =       0.0093656730 bohr
     new conv_thr            =       0.0000000020 Ry


ATOMIC_POSITIONS (crystal)
O                0.0000000000        0.6622297638        0.0611493576
O                0.0000000000        0.3377702340        0.5611493572
O                0.5000000000        0.1622297665        0.0611493480
O                0.5000000000        0.8377702335        0.5611493516
O                0.5000000000        0.8316161190        0.9363140071
O                0.5000000000        0.1683838824        0.4363139907
O                0.0000000000        0.3316161306        0.9363140056
O                0.0000000000        0.6683838732        0.4363139917
H                0.0000000000        0.6608019486        0.1926891731
H                0.0000000000        0.3391980535        0.6926891714
H                0.5000000000        0.1608019558        0.1926891653
H                0.5000000000        0.8391980492        0.6926891667
H                0.0000000000        0.5440131460        0.0232507779
H                0.0000000000        0.4559868509        0.5232507727
H                0.5000000000        0.0440131525        0.0232507716
H                0.5000000000        0.9559868482        0.5232507690
H                0.6705418161        0.7707941725        0.9822983680
H                0.3294581836        0.2292058242        0.4822983579
H                0.6705418164        0.2292058242        0.4822983579
H                0.3294581839        0.7707941725        0.9822983680
H                0.1705418177        0.2707941821        0.9822983632
H                0.8294581826        0.7292058172        0.4822983552
H                0.1705418174        0.7292058172        0.4822983552
H                0.8294581823        0.2707941821        0.9822983632



     Writing config-only to output data dir ./iceIh/iceIh.save/ :
     XML data file
     NEW-OLD atomic charge density approx. for the potential

     negative rho (up, down):  3.150E-07 0.000E+00

     total cpu time spent up to now is      644.8 secs

     per-process dynamical memory:    73.4 Mb

     Self-consistent Calculation

     iteration #  1     ecut=    90.00 Ry     beta= 0.70
     Davidson diagonalization with overlap
     ethr =  1.00E-06,  avg # of iterations =  3.0

     Threshold (ethr) on eigenvalues was too large:
     Diagonalizing with lowered threshold

     Davidson diagonalization with overlap
     ethr =  7.64E-08,  avg # of iterations =  2.0

     negative rho (up, down):  3.484E-07 0.000E+00

     total cpu time spent up to now is      666.8 secs

     total energy              =    -276.00482702 Ry
     estimated scf accuracy    <       0.00005331 Ry

     iteration #  2     ecut=    90.00 Ry     beta= 0.70
     Davidson diagonalization with overlap
     ethr =  8.33E-08,  avg # of iterations =  2.0

     negative rho (up, down):  3.641E-07 0.000E+00

     total cpu time spent up to now is      676.6 secs

     total energy              =    -276.00483484 Ry
     estimated scf accuracy    <       0.00000444 Ry

     iteration #  3     ecut=    90.00 Ry     beta= 0.70
     Davidson diagonalization with overlap
     ethr =  6.94E-09,  avg # of iterations =  3.0

     negative rho (up, down):  3.673E-07 0.000E+00

     total cpu time spent up to now is      688.1 secs

     total energy              =    -276.00483588 Ry
     estimated scf accuracy    <       0.00000105 Ry

     iteration #  4     ecut=    90.00 Ry     beta= 0.70
     Davidson diagonalization with overlap
     ethr =  1.64E-09,  avg # of iterations =  2.3

     negative rho (up, down):  3.687E-07 0.000E+00

     total cpu time spent up to now is      698.4 secs

     total energy              =    -276.00483609 Ry
     estimated scf accuracy    <       0.00000004 Ry

     iteration #  5     ecut=    90.00 Ry     beta= 0.70
     Davidson diagonalization with overlap
     ethr =  5.91E-11,  avg # of iterations =  4.0

     negative rho (up, down):  3.695E-07 0.000E+00

     total cpu time spent up to now is      711.3 secs

     total energy              =    -276.00483610 Ry
     estimated scf accuracy    <       0.00000003 Ry

     iteration #  6     ecut=    90.00 Ry     beta= 0.70
     Davidson diagonalization with overlap
     ethr =  4.31E-11,  avg # of iterations =  2.2

     negative rho (up, down):  3.697E-07 0.000E+00

     total cpu time spent up to now is      720.9 secs

     End of self-consistent calculation

     Number of k-points >= 100: set verbosity='high' to print the bands.

     highest occupied level (ev):    -3.9760

!    total energy              =    -276.00483610 Ry
     estimated scf accuracy    <          1.1E-09 Ry

     The total energy is the sum of the following terms:
     one-electron contribution =    -249.50155952 Ry
     hartree contribution      =     144.22189632 Ry
     xc contribution           =     -67.52816831 Ry
     ewald contribution        =    -103.19700460 Ry

     convergence has been achieved in   6 iterations

     Forces acting on atoms (cartesian axes, Ry/au):

     atom    1 type  2   force =     0.00000000    0.00249494    0.00330545
     atom    2 type  2   force =     0.00000000   -0.00249493    0.00330544
     atom    3 type  2   force =     0.00000000    0.00249499    0.00330549
     atom    4 type  2   force =     0.00000000   -0.00249496    0.00330546
     atom    5 type  2   force =     0.00000000   -0.00099755    0.00307956
     atom    6 type  2   force =     0.00000000    0.00099754    0.00307957
     atom    7 type  2   force =     0.00000000   -0.00099756    0.00307957
     atom    8 type  2   force =     0.00000000    0.00099755    0.00307957
     atom    9 type  1   force =     0.00000000    0.00102167   -0.00200529
     atom   10 type  1   force =     0.00000000   -0.00102167   -0.00200528
     atom   11 type  1   force =     0.00000000    0.00102167   -0.00200531
     atom   12 type  1   force =     0.00000000   -0.00102167   -0.00200529
     atom   13 type  1   force =     0.00000000   -0.00072664   -0.00155238
     atom   14 type  1   force =     0.00000000    0.00072663   -0.00155238
     atom   15 type  1   force =     0.00000000   -0.00072669   -0.00155239
     atom   16 type  1   force =     0.00000000    0.00072666   -0.00155238
     atom   17 type  1   force =     0.00022412   -0.00042172   -0.00141368
     atom   18 type  1   force =    -0.00022412    0.00042172   -0.00141368
     atom   19 type  1   force =     0.00022412    0.00042172   -0.00141368
     atom   20 type  1   force =    -0.00022412   -0.00042172   -0.00141368
     atom   21 type  1   force =     0.00022411   -0.00042172   -0.00141368
     atom   22 type  1   force =    -0.00022411    0.00042172   -0.00141368
     atom   23 type  1   force =     0.00022411    0.00042172   -0.00141368
     atom   24 type  1   force =    -0.00022411   -0.00042172   -0.00141368

     Total force =     0.012663     Total SCF correction =     0.000060


     Computing stress (Cartesian axis) and pressure

          total   stress  (Ry/bohr**3)                   (kbar)     P=      -18.08
  -0.00013103   0.00000000   0.00000000          -19.27        0.00        0.00
   0.00000000  -0.00011246   0.00000000            0.00      -16.54        0.00
   0.00000000   0.00000000  -0.00012525            0.00        0.00      -18.42

     Energy error            =      2.1E-04 Ry
     Gradient error          =      3.3E-03 Ry/Bohr

     number of scf cycles    =   7
     number of bfgs steps    =   6

     energy             old  =    -276.0046223201 Ry
     energy             new  =    -276.0048361045 Ry

     CASE: energy            _new < energy            _old

     new trust radius        =       0.0103022403 bohr
     new conv_thr            =       0.0000000021 Ry


ATOMIC_POSITIONS (crystal)
O                0.0000000000        0.6624880102        0.0611612107
O                0.0000000000        0.3375119878        0.5611612113
O                0.5000000000        0.1624880085        0.0611611943
O                0.5000000000        0.8375119865        0.5611612066
O                0.5000000000        0.8318178924        0.9369992564
O                0.5000000000        0.1681821086        0.4369992435
O                0.0000000000        0.3318179023        0.9369992549
O                0.0000000000        0.6681820999        0.4369992440
H                0.0000000000        0.6609011687        0.1927119069
H                0.0000000000        0.3390988335        0.6927119052
H                0.5000000000        0.1609011761        0.1927119051
H                0.5000000000        0.8390988290        0.6927119003
H                0.0000000000        0.5443135075        0.0231131919
H                0.0000000000        0.4556864894        0.5231131867
H                0.5000000000        0.0443135171        0.0231131867
H                0.5000000000        0.9556864878        0.5231131826
H                0.6707447794        0.7704697653        0.9820072419
H                0.3292552215        0.2295302319        0.4820072311
H                0.6707447785        0.2295302319        0.4820072311
H                0.3292552206        0.7704697653        0.9820072419
H                0.1707447803        0.2704697748        0.9820072374
H                0.8292552203        0.7295302252        0.4820072290
H                0.1707447797        0.7295302252        0.4820072290
H                0.8292552197        0.2704697748        0.9820072374



     Writing config-only to output data dir ./iceIh/iceIh.save/ :
     XML data file
     NEW-OLD atomic charge density approx. for the potential

     negative rho (up, down):  3.956E-07 0.000E+00

     total cpu time spent up to now is      732.0 secs

     per-process dynamical memory:    73.4 Mb

     Self-consistent Calculation

     iteration #  1     ecut=    90.00 Ry     beta= 0.70
     Davidson diagonalization with overlap
     ethr =  1.00E-06,  avg # of iterations =  3.3

     Threshold (ethr) on eigenvalues was too large:
     Diagonalizing with lowered threshold

     Davidson diagonalization with overlap
     ethr =  9.08E-08,  avg # of iterations =  2.0

     negative rho (up, down):  3.828E-07 0.000E+00

     total cpu time spent up to now is      754.9 secs

     total energy              =    -276.00499131 Ry
     estimated scf accuracy    <       0.00006436 Ry

     iteration #  2     ecut=    90.00 Ry     beta= 0.70
     Davidson diagonalization with overlap
     ethr =  1.01E-07,  avg # of iterations =  2.0

     negative rho (up, down):  3.788E-07 0.000E+00

     total cpu time spent up to now is      764.4 secs

     total energy              =    -276.00499976 Ry
     estimated scf accuracy    <       0.00000692 Ry

     iteration #  3     ecut=    90.00 Ry     beta= 0.70
     Davidson diagonalization with overlap
     ethr =  1.08E-08,  avg # of iterations =  3.0

     negative rho (up, down):  3.788E-07 0.000E+00

     total cpu time spent up to now is      776.1 secs

     total energy              =    -276.00500164 Ry
     estimated scf accuracy    <       0.00000223 Ry

     iteration #  4     ecut=    90.00 Ry     beta= 0.70
     Davidson diagonalization with overlap
     ethr =  3.48E-09,  avg # of iterations =  2.6

     negative rho (up, down):  3.784E-07 0.000E+00

     total cpu time spent up to now is      785.9 secs

     total energy              =    -276.00500199 Ry
     estimated scf accuracy    <       0.00000006 Ry

     iteration #  5     ecut=    90.00 Ry     beta= 0.70
     Davidson diagonalization with overlap
     ethr =  9.65E-11,  avg # of iterations =  5.7

     negative rho (up, down):  3.785E-07 0.000E+00

     total cpu time spent up to now is      801.8 secs

     total energy              =    -276.00500203 Ry
     estimated scf accuracy    <       0.00000013 Ry

     iteration #  6     ecut=    90.00 Ry     beta= 0.70
     Davidson diagonalization with overlap
     ethr =  9.65E-11,  avg # of iterations =  3.0

     negative rho (up, down):  3.784E-07 0.000E+00

     total cpu time spent up to now is      813.4 secs

     total energy              =    -276.00500204 Ry
     estimated scf accuracy    <          4.3E-09 Ry

     iteration #  7     ecut=    90.00 Ry     beta= 0.70
     Davidson diagonalization with overlap
     ethr =  6.72E-12,  avg # of iterations =  4.1

     negative rho (up, down):  3.784E-07 0.000E+00

     total cpu time spent up to now is      827.7 secs

     total energy              =    -276.00500205 Ry
     estimated scf accuracy    <          2.8E-09 Ry

     iteration #  8     ecut=    90.00 Ry     beta= 0.70
     Davidson diagonalization with overlap
     ethr =  4.38E-12,  avg # of iterations =  1.8

     negative rho (up, down):  3.783E-07 0.000E+00

     total cpu time spent up to now is      835.9 secs

     End of self-consistent calculation

     Number of k-points >= 100: set verbosity='high' to print the bands.

     highest occupied level (ev):    -3.9801

!    total energy              =    -276.00500205 Ry
     estimated scf accuracy    <          6.3E-10 Ry

     The total energy is the sum of the following terms:
     one-electron contribution =    -249.48540024 Ry
     hartree contribution      =     144.21559824 Ry
     xc contribution           =     -67.52612442 Ry
     ewald contribution        =    -103.20907562 Ry

     convergence has been achieved in   8 iterations

     Forces acting on atoms (cartesian axes, Ry/au):

     atom    1 type  2   force =     0.00000000    0.00235388    0.00326793
     atom    2 type  2   force =     0.00000000   -0.00235388    0.00326790
     atom    3 type  2   force =     0.00000000    0.00235406    0.00326816
     atom    4 type  2   force =     0.00000000   -0.00235388    0.00326789
     atom    5 type  2   force =     0.00000000   -0.00149791    0.00192565
     atom    6 type  2   force =     0.00000000    0.00149788    0.00192563
     atom    7 type  2   force =     0.00000000   -0.00149790    0.00192565
     atom    8 type  2   force =     0.00000000    0.00149790    0.00192565
     atom    9 type  1   force =     0.00000000    0.00095946   -0.00225404
     atom   10 type  1   force =     0.00000000   -0.00095946   -0.00225401
     atom   11 type  1   force =     0.00000000    0.00095946   -0.00225420
     atom   12 type  1   force =     0.00000000   -0.00095946   -0.00225401
     atom   13 type  1   force =     0.00000000   -0.00106471   -0.00123478
     atom   14 type  1   force =     0.00000000    0.00106471   -0.00123477
     atom   15 type  1   force =     0.00000000   -0.00106487   -0.00123482
     atom   16 type  1   force =     0.00000000    0.00106471   -0.00123477
     atom   17 type  1   force =    -0.00038458    0.00002189   -0.00085239
     atom   18 type  1   force =     0.00038456   -0.00002188   -0.00085238
     atom   19 type  1   force =    -0.00038456   -0.00002188   -0.00085238
     atom   20 type  1   force =     0.00038458    0.00002189   -0.00085239
     atom   21 type  1   force =    -0.00038458    0.00002188   -0.00085239
     atom   22 type  1   force =     0.00038457   -0.00002188   -0.00085238
     atom   23 type  1   force =    -0.00038457   -0.00002188   -0.00085238
     atom   24 type  1   force =     0.00038458    0.00002188   -0.00085239

     Total force =     0.011416     Total SCF correction =     0.000026


     Computing stress (Cartesian axis) and pressure

          total   stress  (Ry/bohr**3)                   (kbar)     P=      -18.35
  -0.00013375   0.00000000   0.00000000          -19.68        0.00        0.00
   0.00000000  -0.00011273   0.00000000            0.00      -16.58        0.00
   0.00000000   0.00000000  -0.00012771            0.00        0.00      -18.79

     Energy error            =      1.7E-04 Ry
     Gradient error          =      3.3E-03 Ry/Bohr

     number of scf cycles    =   8
     number of bfgs steps    =   7

     energy             old  =    -276.0048361045 Ry
     energy             new  =    -276.0050020471 Ry

     CASE: energy            _new < energy            _old

     new trust radius        =       0.0109691475 bohr
     new conv_thr            =       0.0000000017 Ry


ATOMIC_POSITIONS (crystal)
O                0.0000000000        0.6628100752        0.0612538771
O                0.0000000000        0.3371899230        0.5612538763
O                0.5000000000        0.1628100841        0.0612538778
O                0.5000000000        0.8371899235        0.5612538701
O                0.5000000000        0.8319485803        0.9377510903
O                0.5000000000        0.1680514171        0.4377510786
O                0.0000000000        0.3319485907        0.9377510882
O                0.0000000000        0.6680514098        0.4377510800
H                0.0000000000        0.6610670972        0.1926715909
H                0.0000000000        0.3389329051        0.6926715911
H                0.5000000000        0.1610671046        0.1926715772
H                0.5000000000        0.8389329006        0.6926715876
H                0.0000000000        0.5446200276        0.0229300202
H                0.0000000000        0.4553799692        0.5229300153
H                0.5000000000        0.0446200264        0.0229300118
H                0.5000000000        0.9553799662        0.5229300121
H                0.6709170683        0.7701385940        0.9816967342
H                0.3290829307        0.2298614050        0.4816967240
H                0.6709170693        0.2298614050        0.4816967240
H                0.3290829317        0.7701385940        0.9816967342
H                0.1709170699        0.2701386022        0.9816967304
H                0.8290829307        0.7298613985        0.4816967222
H                0.1709170693        0.7298613985        0.4816967222
H                0.8290829301        0.2701386022        0.9816967304



     Writing config-only to output data dir ./iceIh/iceIh.save/ :
     XML data file
     NEW-OLD atomic charge density approx. for the potential

     negative rho (up, down):  4.146E-07 0.000E+00

     total cpu time spent up to now is      846.8 secs

     per-process dynamical memory:    73.4 Mb

     Self-consistent Calculation

     iteration #  1     ecut=    90.00 Ry     beta= 0.70
     Davidson diagonalization with overlap
     ethr =  1.00E-06,  avg # of iterations =  3.8

     negative rho (up, down):  3.765E-07 0.000E+00

     total cpu time spent up to now is      861.4 secs

     total energy              =    -276.00508211 Ry
     estimated scf accuracy    <       0.00007518 Ry

     iteration #  2     ecut=    90.00 Ry     beta= 0.70
     Davidson diagonalization with overlap
     ethr =  1.17E-07,  avg # of iterations =  2.1

     negative rho (up, down):  3.890E-07 0.000E+00

     total cpu time spent up to now is      871.4 secs

     total energy              =    -276.00509409 Ry
     estimated scf accuracy    <       0.00001343 Ry

     iteration #  3     ecut=    90.00 Ry     beta= 0.70
     Davidson diagonalization with overlap
     ethr =  2.10E-08,  avg # of iterations =  3.0

     negative rho (up, down):  3.965E-07 0.000E+00

     total cpu time spent up to now is      882.9 secs

     total energy              =    -276.00509761 Ry
     estimated scf accuracy    <       0.00000241 Ry

     iteration #  4     ecut=    90.00 Ry     beta= 0.70
     Davidson diagonalization with overlap
     ethr =  3.76E-09,  avg # of iterations =  2.0

     negative rho (up, down):  3.984E-07 0.000E+00

     total cpu time spent up to now is      892.0 secs

     total energy              =    -276.00509791 Ry
     estimated scf accuracy    <       0.00000009 Ry

     iteration #  5     ecut=    90.00 Ry     beta= 0.70
     Davidson diagonalization with overlap
     ethr =  1.41E-10,  avg # of iterations =  5.0

     negative rho (up, down):  3.981E-07 0.000E+00

     total cpu time spent up to now is      906.9 secs

     total energy              =    -276.00509796 Ry
     estimated scf accuracy    <       0.00000012 Ry

     iteration #  6     ecut=    90.00 Ry     beta= 0.70
     Davidson diagonalization with overlap
     ethr =  1.41E-10,  avg # of iterations =  3.0

     negative rho (up, down):  3.982E-07 0.000E+00

     total cpu time spent up to now is      917.8 secs

     End of self-consistent calculation

     Number of k-points >= 100: set verbosity='high' to print the bands.

     highest occupied level (ev):    -3.9847

!    total energy              =    -276.00509798 Ry
     estimated scf accuracy    <          1.1E-09 Ry

     The total energy is the sum of the following terms:
     one-electron contribution =    -249.51191532 Ry
     hartree contribution      =     144.22929660 Ry
     xc contribution           =     -67.52833536 Ry
     ewald contribution        =    -103.19414390 Ry

     convergence has been achieved in   6 iterations

     Forces acting on atoms (cartesian axes, Ry/au):

     atom    1 type  2   force =     0.00000000    0.00113311    0.00108723
     atom    2 type  2   force =     0.00000000   -0.00113311    0.00108724
     atom    3 type  2   force =     0.00000000    0.00113296    0.00108700
     atom    4 type  2   force =     0.00000000   -0.00113316    0.00108729
     atom    5 type  2   force =     0.00000000   -0.00108155    0.00018538
     atom    6 type  2   force =     0.00000000    0.00108159    0.00018540
     atom    7 type  2   force =     0.00000000   -0.00108158    0.00018539
     atom    8 type  2   force =     0.00000000    0.00108158    0.00018539
     atom    9 type  1   force =     0.00000000    0.00075277   -0.00097750
     atom   10 type  1   force =     0.00000000   -0.00075277   -0.00097752
     atom   11 type  1   force =     0.00000000    0.00075276   -0.00097734
     atom   12 type  1   force =     0.00000000   -0.00075277   -0.00097755
     atom   13 type  1   force =     0.00000000   -0.00034339   -0.00041211
     atom   14 type  1   force =     0.00000000    0.00034339   -0.00041210
     atom   15 type  1   force =     0.00000000   -0.00034325   -0.00041205
     atom   16 type  1   force =     0.00000000    0.00034344   -0.00041212
     atom   17 type  1   force =    -0.00046960    0.00007064    0.00005850
     atom   18 type  1   force =     0.00046963   -0.00007065    0.00005849
     atom   19 type  1   force =    -0.00046963   -0.00007065    0.00005849
     atom   20 type  1   force =     0.00046960    0.00007064    0.00005850
     atom   21 type  1   force =    -0.00046962    0.00007065    0.00005850
     atom   22 type  1   force =     0.00046962   -0.00007065    0.00005850
     atom   23 type  1   force =    -0.00046962   -0.00007065    0.00005850
     atom   24 type  1   force =     0.00046962    0.00007065    0.00005850

     Total force =     0.004874     Total SCF correction =     0.000084


     Computing stress (Cartesian axis) and pressure

          total   stress  (Ry/bohr**3)                   (kbar)     P=      -18.19
  -0.00013225   0.00000000   0.00000000          -19.46        0.00        0.00
   0.00000000  -0.00011584  -0.00000000            0.00      -17.04       -0.00
   0.00000000  -0.00000000  -0.00012288            0.00       -0.00      -18.08

     Energy error            =      9.6E-05 Ry
     Gradient error          =      1.1E-03 Ry/Bohr

     number of scf cycles    =   9
     number of bfgs steps    =   8

     energy             old  =    -276.0050020471 Ry
     energy             new  =    -276.0050979797 Ry

     CASE: energy            _new < energy            _old

     new trust radius        =       0.0013488219 bohr
     new conv_thr            =       0.0000000010 Ry


ATOMIC_POSITIONS (crystal)
O                0.0000000000        0.6628884375        0.0612842843
O                0.0000000000        0.3371115609        0.5612842849
O                0.5000000000        0.1628884338        0.0612842656
O                0.5000000000        0.8371115577        0.5612842824
O                0.5000000000        0.8319074813        0.9378343126
O                0.5000000000        0.1680925189        0.4378343034
O                0.0000000000        0.3319074896        0.9378343112
O                0.0000000000        0.6680925110        0.4378343036
H                0.0000000000        0.6611401514        0.1926381121
H                0.0000000000        0.3388598507        0.6926381109
H                0.5000000000        0.1611401583        0.1926381124
H                0.5000000000        0.8388598465        0.6926381048
H                0.0000000000        0.5446645693        0.0228910952
H                0.0000000000        0.4553354275        0.5228910905
H                0.5000000000        0.0446645799        0.0228910914
H                0.5000000000        0.9553354280        0.5228910865
H                0.6709048387        0.7700973812        0.9816761210
H                0.3290951633        0.2299026168        0.4816761102
H                0.6709048367        0.2299026168        0.4816761102
H                0.3290951613        0.7700973812        0.9816761210
H                0.1709048383        0.2700973900        0.9816761170
H                0.8290951624        0.7299026108        0.4816761088
H                0.1709048376        0.7299026108        0.4816761088
H                0.8290951617        0.2700973900        0.9816761170



     Writing config-only to output data dir ./iceIh/iceIh.save/ :
     XML data file
     NEW-OLD atomic charge density approx. for the potential

     negative rho (up, down):  4.041E-07 0.000E+00

     total cpu time spent up to now is      928.8 secs

     per-process dynamical memory:    73.4 Mb

     Self-consistent Calculation

     iteration #  1     ecut=    90.00 Ry     beta= 0.70
     Davidson diagonalization with overlap
     ethr =  1.00E-06,  avg # of iterations =  2.0

     Threshold (ethr) on eigenvalues was too large:
     Diagonalizing with lowered threshold

     Davidson diagonalization with overlap
     ethr =  3.05E-09,  avg # of iterations =  3.1

     negative rho (up, down):  4.115E-07 0.000E+00

     total cpu time spent up to now is      951.5 secs

     total energy              =    -276.00510860 Ry
     estimated scf accuracy    <       0.00000333 Ry

     iteration #  2     ecut=    90.00 Ry     beta= 0.70
     Davidson diagonalization with overlap
     ethr =  5.21E-09,  avg # of iterations =  3.0

     negative rho (up, down):  4.112E-07 0.000E+00

     total cpu time spent up to now is      963.2 secs

     total energy              =    -276.00510923 Ry
     estimated scf accuracy    <       0.00000102 Ry

     iteration #  3     ecut=    90.00 Ry     beta= 0.70
     Davidson diagonalization with overlap
     ethr =  1.60E-09,  avg # of iterations =  3.0

     negative rho (up, down):  4.116E-07 0.000E+00

     total cpu time spent up to now is      974.4 secs

     total energy              =    -276.00510948 Ry
     estimated scf accuracy    <       0.00000004 Ry

     iteration #  4     ecut=    90.00 Ry     beta= 0.70
     Davidson diagonalization with overlap
     ethr =  6.89E-11,  avg # of iterations =  2.1

     negative rho (up, down):  4.119E-07 0.000E+00

     total cpu time spent up to now is      984.3 secs

     total energy              =    -276.00510949 Ry
     estimated scf accuracy    <          7.2E-09 Ry

     iteration #  5     ecut=    90.00 Ry     beta= 0.70
     Davidson diagonalization with overlap
     ethr =  1.13E-11,  avg # of iterations =  3.5

     negative rho (up, down):  4.117E-07 0.000E+00

     total cpu time spent up to now is      996.2 secs

     End of self-consistent calculation

     Number of k-points >= 100: set verbosity='high' to print the bands.

     highest occupied level (ev):    -3.9855

!    total energy              =    -276.00510949 Ry
     estimated scf accuracy    <          7.2E-10 Ry

     The total energy is the sum of the following terms:
     one-electron contribution =    -249.53277722 Ry
     hartree contribution      =     144.23870275 Ry
     xc contribution           =     -67.53029486 Ry
     ewald contribution        =    -103.18074017 Ry

     convergence has been achieved in   5 iterations

     Forces acting on atoms (cartesian axes, Ry/au):

     atom    1 type  2   force =     0.00000000    0.00047104    0.00007830
     atom    2 type  2   force =     0.00000000   -0.00047104    0.00007828
     atom    3 type  2   force =     0.00000000    0.00047126    0.00007860
     atom    4 type  2   force =     0.00000000   -0.00047099    0.00007822
     atom    5 type  2   force =     0.00000000   -0.00051266   -0.00025979
     atom    6 type  2   force =     0.00000000    0.00051262   -0.00025982
     atom    7 type  2   force =     0.00000000   -0.00051264   -0.00025979
     atom    8 type  2   force =     0.00000000    0.00051264   -0.00025980
     atom    9 type  1   force =     0.00000000    0.00066630   -0.00029421
     atom   10 type  1   force =     0.00000000   -0.00066630   -0.00029419
     atom   11 type  1   force =     0.00000000    0.00066630   -0.00029443
     atom   12 type  1   force =     0.00000000   -0.00066630   -0.00029415
     atom   13 type  1   force =     0.00000000    0.00022914   -0.00010943
     atom   14 type  1   force =     0.00000000   -0.00022914   -0.00010943
     atom   15 type  1   force =     0.00000000    0.00022893   -0.00010950
     atom   16 type  1   force =     0.00000000   -0.00022919   -0.00010941
     atom   17 type  1   force =    -0.00015724   -0.00013361    0.00029256
     atom   18 type  1   force =     0.00015722    0.00013363    0.00029258
     atom   19 type  1   force =    -0.00015722    0.00013363    0.00029258
     atom   20 type  1   force =     0.00015724   -0.00013361    0.00029256
     atom   21 type  1   force =    -0.00015723   -0.00013363    0.00029257
     atom   22 type  1   force =     0.00015723    0.00013362    0.00029257
     atom   23 type  1   force =    -0.00015723    0.00013362    0.00029257
     atom   24 type  1   force =     0.00015723   -0.00013363    0.00029257

     Total force =     0.002375     Total SCF correction =     0.000016


     Computing stress (Cartesian axis) and pressure

          total   stress  (Ry/bohr**3)                   (kbar)     P=      -18.04
  -0.00012992   0.00000000   0.00000000          -19.11        0.00        0.00
   0.00000000  -0.00011782   0.00000000            0.00      -17.33        0.00
   0.00000000   0.00000000  -0.00012011            0.00        0.00      -17.67

     Energy error            =      1.2E-05 Ry
     Gradient error          =      6.7E-04 Ry/Bohr

     bfgs converged in  10 scf cycles and   9 bfgs steps
     (criteria: energy <  1.0E-04 Ry, force <  1.0E-03 Ry/Bohr)

     End of BFGS Geometry Optimization

     Final energy             =    -276.0051094915 Ry

     File ./iceIh/iceIh.bfgs deleted, as requested
Begin final coordinates

ATOMIC_POSITIONS (crystal)
O                0.0000000000        0.6628884375        0.0612842843
O                0.0000000000        0.3371115609        0.5612842849
O                0.5000000000        0.1628884338        0.0612842656
O                0.5000000000        0.8371115577        0.5612842824
O                0.5000000000        0.8319074813        0.9378343126
O                0.5000000000        0.1680925189        0.4378343034
O                0.0000000000        0.3319074896        0.9378343112
O                0.0000000000        0.6680925110        0.4378343036
H                0.0000000000        0.6611401514        0.1926381121
H                0.0000000000        0.3388598507        0.6926381109
H                0.5000000000        0.1611401583        0.1926381124
H                0.5000000000        0.8388598465        0.6926381048
H                0.0000000000        0.5446645693        0.0228910952
H                0.0000000000        0.4553354275        0.5228910905
H                0.5000000000        0.0446645799        0.0228910914
H                0.5000000000        0.9553354280        0.5228910865
H                0.6709048387        0.7700973812        0.9816761210
H                0.3290951633        0.2299026168        0.4816761102
H                0.6709048367        0.2299026168        0.4816761102
H                0.3290951613        0.7700973812        0.9816761210
H                0.1709048383        0.2700973900        0.9816761170
H                0.8290951624        0.7299026108        0.4816761088
H                0.1709048376        0.7299026108        0.4816761088
H                0.8290951617        0.2700973900        0.9816761170
End final coordinates



     Writing all to output data dir ./iceIh/iceIh.save/ :
     XML data file, charge density, pseudopotentials, collected wavefunctions

     init_run     :      5.00s CPU      5.13s WALL (       1 calls)
     electrons    :    880.20s CPU    893.15s WALL (      10 calls)
     update_pot   :      0.14s CPU      0.14s WALL (       9 calls)
     forces       :      6.62s CPU      6.65s WALL (      10 calls)
     stress       :     99.59s CPU     99.66s WALL (      10 calls)

     Called by init_run:
     wfcinit      :      4.40s CPU      4.48s WALL (       1 calls)
     potinit      :      0.02s CPU      0.04s WALL (       1 calls)
     hinit0       :      0.48s CPU      0.49s WALL (       1 calls)

     Called by electrons:
     c_bands      :    787.61s CPU    798.85s WALL (      76 calls)
     sum_band     :     91.16s CPU     91.95s WALL (      76 calls)
     v_of_rho     :      0.98s CPU      1.00s WALL (      82 calls)
     newd         :      0.19s CPU      0.20s WALL (      82 calls)
     mix_rho      :      0.15s CPU      0.15s WALL (      76 calls)

     Called by c_bands:
     init_us_2    :     12.41s CPU     12.84s WALL (   19895 calls)
     cegterg      :    758.85s CPU    765.12s WALL (    8740 calls)

     Called by *egterg:
     cdiaghg      :     59.76s CPU     59.99s WALL (   34213 calls)
     h_psi        :    568.28s CPU    573.92s WALL (   35823 calls)
     s_psi        :     24.03s CPU     24.18s WALL (   35823 calls)
     g_psi        :      2.27s CPU      2.28s WALL (   26968 calls)

     Called by h_psi:
     h_psi:calbec :     42.08s CPU     42.48s WALL (   35823 calls)
     vloc_psi     :    495.56s CPU    500.48s WALL (   35823 calls)
     add_vuspsi   :     25.87s CPU     26.09s WALL (   35823 calls)

     General routines
     calbec       :     56.12s CPU     56.64s WALL (   50313 calls)
     fft          :      1.00s CPU      1.01s WALL (     995 calls)
     ffts         :      0.05s CPU      0.05s WALL (      76 calls)
     fftw         :    513.47s CPU    518.37s WALL ( 2084560 calls)

     Parallel routines

     PWSCF        :  16m36.43s CPU  16m58.00s WALL


   This run was terminated on:  16:47:46   1Apr2026            

=------------------------------------------------------------------------------=
   JOB DONE.
=------------------------------------------------------------------------------=
