
     Program PWSCF v.7.3.1 starts on 21Mar2026 at 23: 3:51 

     This program is part of the open-source Quantum ESPRESSO suite
     for quantum simulation of materials; please cite
         "P. Giannozzi et al., J. Phys.:Condens. Matter 21 395502 (2009);
         "P. Giannozzi et al., J. Phys.:Condens. Matter 29 465901 (2017);
         "P. Giannozzi et al., J. Chem. Phys. 152 154105 (2020);
          URL http://www.quantum-espresso.org", 
     in publications or presentations arising from this work. More details at
     http://www.quantum-espresso.org/quote

     Parallel version (MPI), running on   128 processors

     MPI processes distributed on     1 nodes
     236365 MiB available memory on the printing compute node when the environment starts

     Waiting for input...
     Reading input from standard input

     Current dimensions of program PWSCF are:
     Max number of different atomic species (ntypx) = 10
     Max number of k-points (npk) =  40000
     Max angular momentum in pseudopotentials (lmaxx) =  4
     Found identity + ( -0.5000 -0.5000  0.0000) symmetry
     This is a supercell, fractional translations are disabled

     K-points division:     npool     =       4
     R & G space division:  proc/nbgrp/npool/nimage =      32
     Subspace diagonalization in iterative solution of the eigenvalue problem:
     a serial algorithm will be used


     Parallelization info
     --------------------
     sticks:   dense  smooth     PW     G-vecs:    dense   smooth      PW
     Min         120     120     32                 6962     6962     998
     Max         121     121     33                 6965     6965    1005
     Sum        3849    3849   1047               222811   222811   32035

     Using Slab Decomposition



     bravais-lattice index     =            8
     lattice parameter (alat)  =       8.8138  a.u.
     unit-cell volume          =    1930.4118 (a.u.)^3
     number of atoms/cell      =           24
     number of atomic types    =            2
     number of electrons       =        64.00
     number of Kohn-Sham states=           32
     kinetic-energy cutoff     =      90.0000  Ry
     charge density cutoff     =     360.0000  Ry
     scf convergence threshold =      1.0E-07
     mixing beta               =       0.7000
     number of iterations used =            8  plain     mixing
     Exchange-correlation=  SLA  PW   PBE  PBE
                           (   1   4   3   4   0   0   0)

     celldm(1)=   8.813818  celldm(2)=   1.732119  celldm(3)=   1.627721
     celldm(4)=   0.000000  celldm(5)=   0.000000  celldm(6)=   0.000000

     crystal axes: (cart. coord. in units of alat)
               a(1) = (   1.000000   0.000000   0.000000 )  
               a(2) = (   0.000000   1.732119   0.000000 )  
               a(3) = (   0.000000   0.000000   1.627721 )  

     reciprocal axes: (cart. coord. in units 2 pi/alat)
               b(1) = (  1.000000  0.000000  0.000000 )  
               b(2) = (  0.000000  0.577328  0.000000 )  
               b(3) = (  0.000000  0.000000  0.614356 )  


     PseudoPot. # 1 for H  read from file:
     ./H.pbe-van_ak.UPF
     MD5 check sum: 077eb6d537518a38cb46c6de387227b7
     Pseudo is Ultrasoft, Zval =  1.0
     Generated by new atomic code, or converted to UPF format
     Using radial grid of  615 points,  1 beta functions with: 
                l(1) =   0
     Q(r) pseudized with  8 coefficients,  rinner =    0.800

     PseudoPot. # 2 for O  read from file:
     ./O.pbe-van_ak.UPF
     MD5 check sum: 78c19812648e8988a0fe644b0f25305e
     Pseudo is Ultrasoft, Zval =  6.0
     Generated by new atomic code, or converted to UPF format
     Using radial grid of  737 points,  4 beta functions with: 
                l(1) =   0
                l(2) =   0
                l(3) =   1
                l(4) =   1
     Q(r) pseudized with  8 coefficients,  rinner =    0.800   0.800   0.800


     atomic species   valence    mass     pseudopotential
     H                 1.00     1.00800     H ( 1.00)
     O                 6.00    16.00000     O ( 1.00)

      2 Sym. Ops. (no inversion) found



   Cartesian axes

     site n.     atom                  positions (alat units)
         1        O      tau(   1) = (   0.0000000   1.1515127   0.1027092  )
         2        O      tau(   2) = (   0.0000000   0.5806063   0.9165697  )
         3        O      tau(   3) = (   0.5000000   0.2854532   0.1027092  )
         4        O      tau(   4) = (   0.5000000   1.4466659   0.9165697  )
         5        O      tau(   5) = (   0.5000000   1.4298643   1.5250118  )
         6        O      tau(   6) = (   0.5000000   0.3022548   0.7111513  )
         7        O      tau(   7) = (   0.0000000   0.5638048   1.5250118  )
         8        O      tau(   8) = (   0.0000000   1.1683143   0.7111513  )
         9        H      tau(   9) = (   0.0000000   1.1494343   0.3195216  )
        10        H      tau(  10) = (   0.0000000   0.5826848   1.1333822  )
        11        H      tau(  11) = (   0.5000000   0.2833747   0.3195216  )
        12        H      tau(  12) = (   0.5000000   1.4487443   1.1333822  )
        13        H      tau(  13) = (   0.0000000   0.9289355   0.0297873  )
        14        H      tau(  14) = (   0.0000000   0.8031836   0.8436478  )
        15        H      tau(  15) = (   0.5000000   0.0628759   0.0297873  )
        16        H      tau(  16) = (   0.5000000   1.6692431   0.8436478  )
        17        H      tau(  17) = (   0.6766000   1.3420459   1.5979337  )
        18        H      tau(  18) = (   0.3234000   0.3900732   0.7840732  )
        19        H      tau(  19) = (   0.6766000   0.3900732   0.7840732  )
        20        H      tau(  20) = (   0.3234000   1.3420459   1.5979337  )
        21        H      tau(  21) = (   0.1766000   0.4759863   1.5979337  )
        22        H      tau(  22) = (   0.8234000   1.2561327   0.7840732  )
        23        H      tau(  23) = (   0.1766000   1.2561327   0.7840732  )
        24        H      tau(  24) = (   0.8234000   0.4759863   1.5979337  )

     number of k points=   460

     Number of k-points >= 100: set verbosity='high' to print them.

     Dense  grid:   222811 G-vectors     FFT dimensions: (  54,  96,  90)

     Estimated max dynamical RAM per process >      58.10 MB

     Estimated total dynamical RAM >       7.10 GB

     Initial potential from superposition of free atoms

     starting charge      63.9998, renormalised to      64.0000
     Starting wfcs are   48 randomized atomic wfcs

     total cpu time spent up to now is        5.4 secs

     per-process dynamical memory:    66.3 Mb

     Self-consistent Calculation

     iteration #  1     ecut=    90.00 Ry     beta= 0.70
     Davidson diagonalization with overlap
     ethr =  1.00E-02,  avg # of iterations =  2.0

     total cpu time spent up to now is       15.1 secs

     total energy              =    -274.80312302 Ry
     estimated scf accuracy    <       2.68508123 Ry

     iteration #  2     ecut=    90.00 Ry     beta= 0.70
     Davidson diagonalization with overlap
     ethr =  4.20E-03,  avg # of iterations =  3.0

     total cpu time spent up to now is       28.2 secs

     total energy              =    -275.62343572 Ry
     estimated scf accuracy    <       1.89190392 Ry

     iteration #  3     ecut=    90.00 Ry     beta= 0.70
     Davidson diagonalization with overlap
     ethr =  2.96E-03,  avg # of iterations =  2.0

     total cpu time spent up to now is       38.0 secs

     total energy              =    -275.88287766 Ry
     estimated scf accuracy    <       0.07515850 Ry

     iteration #  4     ecut=    90.00 Ry     beta= 0.70
     Davidson diagonalization with overlap
     ethr =  1.17E-04,  avg # of iterations =  4.0

     total cpu time spent up to now is       52.7 secs

     total energy              =    -275.94260495 Ry
     estimated scf accuracy    <       0.09045602 Ry

     iteration #  5     ecut=    90.00 Ry     beta= 0.70
     Davidson diagonalization with overlap
     ethr =  1.17E-04,  avg # of iterations =  2.0

     total cpu time spent up to now is       61.1 secs

     total energy              =    -275.94629150 Ry
     estimated scf accuracy    <       0.01474602 Ry

     iteration #  6     ecut=    90.00 Ry     beta= 0.70
     Davidson diagonalization with overlap
     ethr =  2.30E-05,  avg # of iterations =  2.0

     negative rho (up, down):  2.460E-08 0.000E+00

     total cpu time spent up to now is       69.5 secs

     total energy              =    -275.94415112 Ry
     estimated scf accuracy    <       0.00676862 Ry

     iteration #  7     ecut=    90.00 Ry     beta= 0.70
     Davidson diagonalization with overlap
     ethr =  1.06E-05,  avg # of iterations =  3.0

     negative rho (up, down):  4.993E-08 0.000E+00

     total cpu time spent up to now is       81.5 secs

     total energy              =    -275.94685519 Ry
     estimated scf accuracy    <       0.00022206 Ry

     iteration #  8     ecut=    90.00 Ry     beta= 0.70
     Davidson diagonalization with overlap
     ethr =  3.47E-07,  avg # of iterations =  3.9

     negative rho (up, down):  2.643E-08 0.000E+00

     total cpu time spent up to now is       95.4 secs

     total energy              =    -275.94675389 Ry
     estimated scf accuracy    <       0.00130106 Ry

     iteration #  9     ecut=    90.00 Ry     beta= 0.70
     Davidson diagonalization with overlap
     ethr =  3.47E-07,  avg # of iterations =  2.0

     total cpu time spent up to now is      105.1 secs

     total energy              =    -275.94656108 Ry
     estimated scf accuracy    <       0.00053258 Ry

     iteration # 10     ecut=    90.00 Ry     beta= 0.70
     Davidson diagonalization with overlap
     ethr =  3.47E-07,  avg # of iterations =  3.0

     total cpu time spent up to now is      117.3 secs

     total energy              =    -275.94665729 Ry
     estimated scf accuracy    <       0.00000956 Ry

     iteration # 11     ecut=    90.00 Ry     beta= 0.70
     Davidson diagonalization with overlap
     ethr =  1.49E-08,  avg # of iterations =  3.2

     total cpu time spent up to now is      130.0 secs

     total energy              =    -275.94666350 Ry
     estimated scf accuracy    <       0.00000031 Ry

     iteration # 12     ecut=    90.00 Ry     beta= 0.70
     Davidson diagonalization with overlap
     ethr =  4.91E-10,  avg # of iterations =  4.9

     total cpu time spent up to now is      144.5 secs

     End of self-consistent calculation

     Number of k-points >= 100: set verbosity='high' to print the bands.

     highest occupied level (ev):    -3.7936

!    total energy              =    -275.94666375 Ry
     estimated scf accuracy    <       0.00000006 Ry

     The total energy is the sum of the following terms:
     one-electron contribution =    -247.36822163 Ry
     hartree contribution      =     143.26339690 Ry
     xc contribution           =     -67.32493928 Ry
     ewald contribution        =    -104.51689974 Ry

     convergence has been achieved in  12 iterations

     Forces acting on atoms (cartesian axes, Ry/au):

     atom    1 type  2   force =     0.00000000   -0.08692390   -0.01944010
     atom    2 type  2   force =     0.00000000    0.08692387   -0.01943971
     atom    3 type  2   force =     0.00000000   -0.08692397   -0.01944048
     atom    4 type  2   force =     0.00000000    0.08692389   -0.01943981
     atom    5 type  2   force =     0.00000000    0.05758801   -0.03161916
     atom    6 type  2   force =     0.00000000   -0.05758791   -0.03161912
     atom    7 type  2   force =     0.00000000    0.05758829   -0.03161922
     atom    8 type  2   force =     0.00000000   -0.05758813   -0.03161916
     atom    9 type  1   force =     0.00000000   -0.00565188   -0.02128854
     atom   10 type  1   force =     0.00000000    0.00565187   -0.02128907
     atom   11 type  1   force =     0.00000000   -0.00565189   -0.02128859
     atom   12 type  1   force =     0.00000000    0.00565190   -0.02128922
     atom   13 type  1   force =     0.00000000    0.09093515    0.03574006
     atom   14 type  1   force =     0.00000000   -0.09093517    0.03574003
     atom   15 type  1   force =     0.00000000    0.09093546    0.03574017
     atom   16 type  1   force =     0.00000000   -0.09093532    0.03574009
     atom   17 type  1   force =     0.01054034   -0.02749949    0.01830404
     atom   18 type  1   force =    -0.01054022    0.02749940    0.01830396
     atom   19 type  1   force =     0.01054022    0.02749940    0.01830396
     atom   20 type  1   force =    -0.01054034   -0.02749949    0.01830404
     atom   21 type  1   force =     0.01054023   -0.02749938    0.01830399
     atom   22 type  1   force =    -0.01054015    0.02749933    0.01830392
     atom   23 type  1   force =     0.01054015    0.02749933    0.01830392
     atom   24 type  1   force =    -0.01054023   -0.02749938    0.01830399

     Total force =     0.314237     Total SCF correction =     0.000166


     Computing stress (Cartesian axis) and pressure

          total   stress  (Ry/bohr**3)                   (kbar)     P=      -37.11
  -0.00005104   0.00000000   0.00000000           -7.51        0.00        0.00
   0.00000000  -0.00049873   0.00000000            0.00      -73.37        0.00
   0.00000000   0.00000000  -0.00020700            0.00        0.00      -30.45


     Writing all to output data dir ./iceIh/iceIh.save/ :
     XML data file, charge density, pseudopotentials, collected wavefunctions

     init_run     :      5.03s CPU      5.15s WALL (       1 calls)
     electrons    :    137.21s CPU    139.20s WALL (       1 calls)
     forces       :      0.68s CPU      0.70s WALL (       1 calls)
     stress       :      9.95s CPU      9.96s WALL (       1 calls)

     Called by init_run:
     wfcinit      :      4.43s CPU      4.51s WALL (       1 calls)
     potinit      :      0.03s CPU      0.04s WALL (       1 calls)
     hinit0       :      0.48s CPU      0.49s WALL (       1 calls)

     Called by electrons:
     c_bands      :    122.62s CPU    124.37s WALL (      12 calls)
     sum_band     :     14.34s CPU     14.47s WALL (      12 calls)
     v_of_rho     :      0.16s CPU      0.16s WALL (      13 calls)
     newd         :      0.03s CPU      0.04s WALL (      13 calls)
     mix_rho      :      0.03s CPU      0.03s WALL (      12 calls)

     Called by c_bands:
     init_us_2    :      1.93s CPU      1.99s WALL (    3105 calls)
     cegterg      :    119.10s CPU    120.13s WALL (    1380 calls)

     Called by *egterg:
     cdiaghg      :      9.44s CPU      9.48s WALL (    5458 calls)
     h_psi        :     92.05s CPU     93.05s WALL (    5573 calls)
     s_psi        :      3.92s CPU      3.94s WALL (    5573 calls)
     g_psi        :      0.36s CPU      0.36s WALL (    4078 calls)

     Called by h_psi:
     h_psi:calbec :      6.72s CPU      6.78s WALL (    5573 calls)
     vloc_psi     :     80.41s CPU     81.30s WALL (    5573 calls)
     add_vuspsi   :      4.14s CPU      4.18s WALL (    5573 calls)

     General routines
     calbec       :      8.59s CPU      8.66s WALL (    7528 calls)
     fft          :      0.54s CPU      0.55s WALL (     151 calls)
     ffts         :      0.01s CPU      0.01s WALL (      12 calls)
     fftw         :     83.18s CPU     84.04s WALL (  338802 calls)

     Parallel routines

     PWSCF        :   2m35.96s CPU   2m44.58s WALL


   This run was terminated on:  23: 6:36  21Mar2026            

=------------------------------------------------------------------------------=
   JOB DONE.
=------------------------------------------------------------------------------=
