
     Program PWSCF v.7.3.1 starts on 22Mar2026 at  0: 5:14 

     This program is part of the open-source Quantum ESPRESSO suite
     for quantum simulation of materials; please cite
         "P. Giannozzi et al., J. Phys.:Condens. Matter 21 395502 (2009);
         "P. Giannozzi et al., J. Phys.:Condens. Matter 29 465901 (2017);
         "P. Giannozzi et al., J. Chem. Phys. 152 154105 (2020);
          URL http://www.quantum-espresso.org", 
     in publications or presentations arising from this work. More details at
     http://www.quantum-espresso.org/quote

     Parallel version (MPI), running on   128 processors

     MPI processes distributed on     1 nodes
     236173 MiB available memory on the printing compute node when the environment starts

     Waiting for input...
     Reading input from standard input

     Current dimensions of program PWSCF are:
     Max number of different atomic species (ntypx) = 10
     Max number of k-points (npk) =  40000
     Max angular momentum in pseudopotentials (lmaxx) =  4
     Found identity + ( -0.5000 -0.5000  0.0000) symmetry
     This is a supercell, fractional translations are disabled

     K-points division:     npool     =       4
     R & G space division:  proc/nbgrp/npool/nimage =      32
     Subspace diagonalization in iterative solution of the eigenvalue problem:
     a serial algorithm will be used


     Parallelization info
     --------------------
     sticks:   dense  smooth     PW     G-vecs:    dense   smooth      PW
     Min         121     121     33                 7077     7077    1017
     Max         122     122     34                 7086     7086    1021
     Sum        3901    3901   1073               226615   226615   32605

     Using Slab Decomposition



     bravais-lattice index     =            8
     lattice parameter (alat)  =       8.8649  a.u.
     unit-cell volume          =    1964.1464 (a.u.)^3
     number of atoms/cell      =           24
     number of atomic types    =            2
     number of electrons       =        64.00
     number of Kohn-Sham states=           32
     kinetic-energy cutoff     =      90.0000  Ry
     charge density cutoff     =     360.0000  Ry
     scf convergence threshold =      1.0E-07
     mixing beta               =       0.7000
     number of iterations used =            8  plain     mixing
     Exchange-correlation=  SLA  PW   PBE  PBE
                           (   1   4   3   4   0   0   0)

     celldm(1)=   8.864863  celldm(2)=   1.732119  celldm(3)=   1.627721
     celldm(4)=   0.000000  celldm(5)=   0.000000  celldm(6)=   0.000000

     crystal axes: (cart. coord. in units of alat)
               a(1) = (   1.000000   0.000000   0.000000 )  
               a(2) = (   0.000000   1.732119   0.000000 )  
               a(3) = (   0.000000   0.000000   1.627721 )  

     reciprocal axes: (cart. coord. in units 2 pi/alat)
               b(1) = (  1.000000  0.000000  0.000000 )  
               b(2) = (  0.000000  0.577328  0.000000 )  
               b(3) = (  0.000000  0.000000  0.614356 )  


     PseudoPot. # 1 for H  read from file:
     ./H.pbe-van_ak.UPF
     MD5 check sum: 077eb6d537518a38cb46c6de387227b7
     Pseudo is Ultrasoft, Zval =  1.0
     Generated by new atomic code, or converted to UPF format
     Using radial grid of  615 points,  1 beta functions with: 
                l(1) =   0
     Q(r) pseudized with  8 coefficients,  rinner =    0.800

     PseudoPot. # 2 for O  read from file:
     ./O.pbe-van_ak.UPF
     MD5 check sum: 78c19812648e8988a0fe644b0f25305e
     Pseudo is Ultrasoft, Zval =  6.0
     Generated by new atomic code, or converted to UPF format
     Using radial grid of  737 points,  4 beta functions with: 
                l(1) =   0
                l(2) =   0
                l(3) =   1
                l(4) =   1
     Q(r) pseudized with  8 coefficients,  rinner =    0.800   0.800   0.800


     atomic species   valence    mass     pseudopotential
     H                 1.00     1.00800     H ( 1.00)
     O                 6.00    16.00000     O ( 1.00)

      2 Sym. Ops. (no inversion) found



   Cartesian axes

     site n.     atom                  positions (alat units)
         1        O      tau(   1) = (   0.0000000   1.1515127   0.1027092  )
         2        O      tau(   2) = (   0.0000000   0.5806063   0.9165697  )
         3        O      tau(   3) = (   0.5000000   0.2854532   0.1027092  )
         4        O      tau(   4) = (   0.5000000   1.4466659   0.9165697  )
         5        O      tau(   5) = (   0.5000000   1.4298643   1.5250118  )
         6        O      tau(   6) = (   0.5000000   0.3022548   0.7111513  )
         7        O      tau(   7) = (   0.0000000   0.5638048   1.5250118  )
         8        O      tau(   8) = (   0.0000000   1.1683143   0.7111513  )
         9        H      tau(   9) = (   0.0000000   1.1494343   0.3195216  )
        10        H      tau(  10) = (   0.0000000   0.5826848   1.1333822  )
        11        H      tau(  11) = (   0.5000000   0.2833747   0.3195216  )
        12        H      tau(  12) = (   0.5000000   1.4487443   1.1333822  )
        13        H      tau(  13) = (   0.0000000   0.9289355   0.0297873  )
        14        H      tau(  14) = (   0.0000000   0.8031836   0.8436478  )
        15        H      tau(  15) = (   0.5000000   0.0628759   0.0297873  )
        16        H      tau(  16) = (   0.5000000   1.6692431   0.8436478  )
        17        H      tau(  17) = (   0.6766000   1.3420459   1.5979337  )
        18        H      tau(  18) = (   0.3234000   0.3900732   0.7840732  )
        19        H      tau(  19) = (   0.6766000   0.3900732   0.7840732  )
        20        H      tau(  20) = (   0.3234000   1.3420459   1.5979337  )
        21        H      tau(  21) = (   0.1766000   0.4759863   1.5979337  )
        22        H      tau(  22) = (   0.8234000   1.2561327   0.7840732  )
        23        H      tau(  23) = (   0.1766000   1.2561327   0.7840732  )
        24        H      tau(  24) = (   0.8234000   0.4759863   1.5979337  )

     number of k points=   460

     Number of k-points >= 100: set verbosity='high' to print them.

     Dense  grid:   226615 G-vectors     FFT dimensions: (  54,  96,  90)

     Estimated max dynamical RAM per process >      59.13 MB

     Estimated total dynamical RAM >       7.23 GB

     Initial potential from superposition of free atoms

     starting charge      63.9998, renormalised to      64.0000
     Starting wfcs are   48 randomized atomic wfcs

     total cpu time spent up to now is        5.5 secs

     per-process dynamical memory:    65.7 Mb

     Self-consistent Calculation

     iteration #  1     ecut=    90.00 Ry     beta= 0.70
     Davidson diagonalization with overlap
     ethr =  1.00E-02,  avg # of iterations =  2.0

     negative rho (up, down):  1.138E-07 0.000E+00

     total cpu time spent up to now is       15.3 secs

     total energy              =    -274.79552400 Ry
     estimated scf accuracy    <       2.66883365 Ry

     iteration #  2     ecut=    90.00 Ry     beta= 0.70
     Davidson diagonalization with overlap
     ethr =  4.17E-03,  avg # of iterations =  3.0

     total cpu time spent up to now is       28.5 secs

     total energy              =    -275.60974643 Ry
     estimated scf accuracy    <       1.92443010 Ry

     iteration #  3     ecut=    90.00 Ry     beta= 0.70
     Davidson diagonalization with overlap
     ethr =  3.01E-03,  avg # of iterations =  2.0

     negative rho (up, down):  2.902E-07 0.000E+00

     total cpu time spent up to now is       38.4 secs

     total energy              =    -275.87202286 Ry
     estimated scf accuracy    <       0.07780623 Ry

     iteration #  4     ecut=    90.00 Ry     beta= 0.70
     Davidson diagonalization with overlap
     ethr =  1.22E-04,  avg # of iterations =  4.0

     negative rho (up, down):  5.069E-07 0.000E+00

     total cpu time spent up to now is       53.2 secs

     total energy              =    -275.93385661 Ry
     estimated scf accuracy    <       0.09256631 Ry

     iteration #  5     ecut=    90.00 Ry     beta= 0.70
     Davidson diagonalization with overlap
     ethr =  1.22E-04,  avg # of iterations =  2.0

     negative rho (up, down):  6.060E-07 0.000E+00

     total cpu time spent up to now is       61.7 secs

     total energy              =    -275.93752172 Ry
     estimated scf accuracy    <       0.01528150 Ry

     iteration #  6     ecut=    90.00 Ry     beta= 0.70
     Davidson diagonalization with overlap
     ethr =  2.39E-05,  avg # of iterations =  2.0

     negative rho (up, down):  8.361E-07 0.000E+00

     total cpu time spent up to now is       70.1 secs

     total energy              =    -275.93515939 Ry
     estimated scf accuracy    <       0.00709083 Ry

     iteration #  7     ecut=    90.00 Ry     beta= 0.70
     Davidson diagonalization with overlap
     ethr =  1.11E-05,  avg # of iterations =  3.0

     negative rho (up, down):  8.699E-07 0.000E+00

     total cpu time spent up to now is       82.3 secs

     total energy              =    -275.93814668 Ry
     estimated scf accuracy    <       0.00035359 Ry

     iteration #  8     ecut=    90.00 Ry     beta= 0.70
     Davidson diagonalization with overlap
     ethr =  5.52E-07,  avg # of iterations =  3.9

     negative rho (up, down):  8.239E-07 0.000E+00

     total cpu time spent up to now is       95.3 secs

     total energy              =    -275.93801789 Ry
     estimated scf accuracy    <       0.00126834 Ry

     iteration #  9     ecut=    90.00 Ry     beta= 0.70
     Davidson diagonalization with overlap
     ethr =  5.52E-07,  avg # of iterations =  2.0

     negative rho (up, down):  7.554E-07 0.000E+00

     total cpu time spent up to now is      104.3 secs

     total energy              =    -275.93782373 Ry
     estimated scf accuracy    <       0.00050554 Ry

     iteration # 10     ecut=    90.00 Ry     beta= 0.70
     Davidson diagonalization with overlap
     ethr =  5.52E-07,  avg # of iterations =  2.7

     negative rho (up, down):  7.608E-07 0.000E+00

     total cpu time spent up to now is      115.8 secs

     total energy              =    -275.93792361 Ry
     estimated scf accuracy    <       0.00000723 Ry

     iteration # 11     ecut=    90.00 Ry     beta= 0.70
     Davidson diagonalization with overlap
     ethr =  1.13E-08,  avg # of iterations =  5.0

     negative rho (up, down):  7.742E-07 0.000E+00

     total cpu time spent up to now is      131.3 secs

     total energy              =    -275.93793153 Ry
     estimated scf accuracy    <       0.00000295 Ry

     iteration # 12     ecut=    90.00 Ry     beta= 0.70
     Davidson diagonalization with overlap
     ethr =  4.62E-09,  avg # of iterations =  4.0

     negative rho (up, down):  7.726E-07 0.000E+00

     total cpu time spent up to now is      144.8 secs

     total energy              =    -275.93793286 Ry
     estimated scf accuracy    <       0.00000322 Ry

     iteration # 13     ecut=    90.00 Ry     beta= 0.70
     Davidson diagonalization with overlap
     ethr =  4.62E-09,  avg # of iterations =  1.0

     negative rho (up, down):  7.700E-07 0.000E+00

     total cpu time spent up to now is      152.1 secs

     total energy              =    -275.93793242 Ry
     estimated scf accuracy    <       0.00000136 Ry

     iteration # 14     ecut=    90.00 Ry     beta= 0.70
     Davidson diagonalization with overlap
     ethr =  2.13E-09,  avg # of iterations =  2.0

     negative rho (up, down):  7.687E-07 0.000E+00

     total cpu time spent up to now is      161.7 secs

     End of self-consistent calculation

     Number of k-points >= 100: set verbosity='high' to print the bands.

     highest occupied level (ev):    -3.8485

!    total energy              =    -275.93793260 Ry
     estimated scf accuracy    <       0.00000006 Ry

     The total energy is the sum of the following terms:
     one-electron contribution =    -248.49925283 Ry
     hartree contribution      =     143.70339586 Ry
     xc contribution           =     -67.22700064 Ry
     ewald contribution        =    -103.91507499 Ry

     convergence has been achieved in  14 iterations

     Forces acting on atoms (cartesian axes, Ry/au):

     atom    1 type  2   force =     0.00000000   -0.09095274   -0.01314491
     atom    2 type  2   force =     0.00000000    0.09095280   -0.01314419
     atom    3 type  2   force =     0.00000000   -0.09095262   -0.01314509
     atom    4 type  2   force =     0.00000000    0.09095250   -0.01314454
     atom    5 type  2   force =     0.00000000    0.04987114   -0.02520992
     atom    6 type  2   force =     0.00000000   -0.04987099   -0.02520966
     atom    7 type  2   force =     0.00000000    0.04987177   -0.02521089
     atom    8 type  2   force =     0.00000000   -0.04987171   -0.02521081
     atom    9 type  1   force =     0.00000000   -0.00596618   -0.02951924
     atom   10 type  1   force =     0.00000000    0.00596618   -0.02951974
     atom   11 type  1   force =     0.00000000   -0.00596618   -0.02951933
     atom   12 type  1   force =     0.00000000    0.00596617   -0.02951987
     atom   13 type  1   force =     0.00000000    0.09546498    0.03774919
     atom   14 type  1   force =     0.00000000   -0.09546495    0.03774915
     atom   15 type  1   force =     0.00000000    0.09546505    0.03774921
     atom   16 type  1   force =     0.00000000   -0.09546502    0.03774916
     atom   17 type  1   force =     0.00186642   -0.02354927    0.01506288
     atom   18 type  1   force =    -0.00186641    0.02354925    0.01506286
     atom   19 type  1   force =     0.00186641    0.02354925    0.01506286
     atom   20 type  1   force =    -0.00186642   -0.02354927    0.01506288
     atom   21 type  1   force =     0.00186581   -0.02354894    0.01506254
     atom   22 type  1   force =    -0.00186569    0.02354886    0.01506246
     atom   23 type  1   force =     0.00186569    0.02354886    0.01506246
     atom   24 type  1   force =    -0.00186581   -0.02354894    0.01506254

     Total force =     0.313581     Total SCF correction =     0.000182


     Computing stress (Cartesian axis) and pressure

          total   stress  (Ry/bohr**3)                   (kbar)     P=      -45.13
  -0.00011962   0.00000000   0.00000000          -17.60        0.00        0.00
   0.00000000  -0.00053797  -0.00000000            0.00      -79.14       -0.00
   0.00000000  -0.00000000  -0.00026281            0.00       -0.00      -38.66


     Writing all to output data dir ./iceIh/iceIh.save/ :
     XML data file, charge density, pseudopotentials, collected wavefunctions

     init_run     :      5.22s CPU      5.32s WALL (       1 calls)
     electrons    :    153.97s CPU    156.28s WALL (       1 calls)
     forces       :      0.66s CPU      0.68s WALL (       1 calls)
     stress       :     10.05s CPU     10.06s WALL (       1 calls)

     Called by init_run:
     wfcinit      :      4.61s CPU      4.67s WALL (       1 calls)
     potinit      :      0.02s CPU      0.03s WALL (       1 calls)
     hinit0       :      0.49s CPU      0.50s WALL (       1 calls)

     Called by electrons:
     c_bands      :    136.90s CPU    138.90s WALL (      14 calls)
     sum_band     :     16.79s CPU     17.00s WALL (      14 calls)
     v_of_rho     :      0.18s CPU      0.19s WALL (      15 calls)
     newd         :      0.04s CPU      0.04s WALL (      15 calls)
     mix_rho      :      0.04s CPU      0.04s WALL (      14 calls)

     Called by c_bands:
     init_us_2    :      2.24s CPU      2.32s WALL (    3565 calls)
     cegterg      :    132.43s CPU    133.62s WALL (    1610 calls)

     Called by *egterg:
     cdiaghg      :     10.26s CPU     10.29s WALL (    6095 calls)
     h_psi        :    102.28s CPU    103.41s WALL (    6210 calls)
     s_psi        :      4.23s CPU      4.25s WALL (    6210 calls)
     g_psi        :      0.39s CPU      0.39s WALL (    4485 calls)

     Called by h_psi:
     h_psi:calbec :      7.56s CPU      7.62s WALL (    6210 calls)
     vloc_psi     :     89.35s CPU     90.34s WALL (    6210 calls)
     add_vuspsi   :      4.54s CPU      4.58s WALL (    6210 calls)

     General routines
     calbec       :      9.70s CPU      9.80s WALL (    8395 calls)
     fft          :      0.55s CPU      0.57s WALL (     173 calls)
     ffts         :      0.01s CPU      0.01s WALL (      14 calls)
     fftw         :     93.04s CPU     94.05s WALL (  376434 calls)

     Parallel routines

     PWSCF        :   2m52.73s CPU   3m 2.95s WALL


   This run was terminated on:   0: 8:16  22Mar2026            

=------------------------------------------------------------------------------=
   JOB DONE.
=------------------------------------------------------------------------------=
