
     Program PWSCF v.7.3.1 starts on 24Mar2026 at 21:37:22 

     This program is part of the open-source Quantum ESPRESSO suite
     for quantum simulation of materials; please cite
         "P. Giannozzi et al., J. Phys.:Condens. Matter 21 395502 (2009);
         "P. Giannozzi et al., J. Phys.:Condens. Matter 29 465901 (2017);
         "P. Giannozzi et al., J. Chem. Phys. 152 154105 (2020);
          URL http://www.quantum-espresso.org", 
     in publications or presentations arising from this work. More details at
     http://www.quantum-espresso.org/quote

     Parallel version (MPI), running on   128 processors

     MPI processes distributed on     1 nodes
     236312 MiB available memory on the printing compute node when the environment starts

     Waiting for input...
     Reading input from standard input

     Current dimensions of program PWSCF are:
     Max number of different atomic species (ntypx) = 10
     Max number of k-points (npk) =  40000
     Max angular momentum in pseudopotentials (lmaxx) =  4
     Found identity + ( -0.5000  0.5000 -0.0000) symmetry
     This is a supercell, fractional translations are disabled

     K-points division:     npool     =       4
     R & G space division:  proc/nbgrp/npool/nimage =      32
     Subspace diagonalization in iterative solution of the eigenvalue problem:
     a serial algorithm will be used


     Parallelization info
     --------------------
     sticks:   dense  smooth     PW     G-vecs:    dense   smooth      PW
     Min         121     121     33                 7115     7115    1022
     Max         122     122     35                 7126     7126    1025
     Sum        3901    3901   1085               227903   227903   32753

     Using Slab Decomposition



     bravais-lattice index     =            8
     lattice parameter (alat)  =       8.8819  a.u.
     unit-cell volume          =    1975.4779 (a.u.)^3
     number of atoms/cell      =           24
     number of atomic types    =            2
     number of electrons       =        64.00
     number of Kohn-Sham states=           32
     kinetic-energy cutoff     =      90.0000  Ry
     charge density cutoff     =     360.0000  Ry
     scf convergence threshold =      1.0E-07
     mixing beta               =       0.7000
     number of iterations used =            8  plain     mixing
     Exchange-correlation=  SLA  PW   PBE  PBE
                           (   1   4   3   4   0   0   0)

     celldm(1)=   8.881878  celldm(2)=   1.732119  celldm(3)=   1.627721
     celldm(4)=   0.000000  celldm(5)=   0.000000  celldm(6)=   0.000000

     crystal axes: (cart. coord. in units of alat)
               a(1) = (   1.000000   0.000000   0.000000 )  
               a(2) = (   0.000000   1.732119   0.000000 )  
               a(3) = (   0.000000   0.000000   1.627721 )  

     reciprocal axes: (cart. coord. in units 2 pi/alat)
               b(1) = (  1.000000  0.000000  0.000000 )  
               b(2) = (  0.000000  0.577328  0.000000 )  
               b(3) = (  0.000000  0.000000  0.614356 )  


     PseudoPot. # 1 for H  read from file:
     ./H.pbe-van_ak.UPF
     MD5 check sum: 077eb6d537518a38cb46c6de387227b7
     Pseudo is Ultrasoft, Zval =  1.0
     Generated by new atomic code, or converted to UPF format
     Using radial grid of  615 points,  1 beta functions with: 
                l(1) =   0
     Q(r) pseudized with  8 coefficients,  rinner =    0.800

     PseudoPot. # 2 for O  read from file:
     ./O.pbe-van_ak.UPF
     MD5 check sum: 78c19812648e8988a0fe644b0f25305e
     Pseudo is Ultrasoft, Zval =  6.0
     Generated by new atomic code, or converted to UPF format
     Using radial grid of  737 points,  4 beta functions with: 
                l(1) =   0
                l(2) =   0
                l(3) =   1
                l(4) =   1
     Q(r) pseudized with  8 coefficients,  rinner =    0.800   0.800   0.800


     atomic species   valence    mass     pseudopotential
     H                 1.00     1.00800     H ( 1.00)
     O                 6.00    16.00000     O ( 1.00)

      2 Sym. Ops. (no inversion) found



   Cartesian axes

     site n.     atom                  positions (alat units)
         1        O      tau(   1) = (   0.0000000   1.1484866   0.0984416  )
         2        O      tau(   2) = (   0.0000000   0.5836324   0.9123021  )
         3        O      tau(   3) = (   0.5000000   0.2824271   0.0984415  )
         4        O      tau(   4) = (   0.5000000   1.4496920   0.9123021  )
         5        O      tau(   5) = (   0.5000000   1.4402433   1.5187349  )
         6        O      tau(   6) = (   0.5000000   0.2918758   0.7048744  )
         7        O      tau(   7) = (   0.0000000   0.5741838   1.5187348  )
         8        O      tau(   8) = (   0.0000000   1.1579353   0.7048743  )
         9        H      tau(   9) = (   0.0000000   1.1487418   0.3216685  )
        10        H      tau(  10) = (   0.0000000   0.5833772   1.1355290  )
        11        H      tau(  11) = (   0.5000000   0.2826823   0.3216685  )
        12        H      tau(  12) = (   0.5000000   1.4494367   1.1355290  )
        13        H      tau(  13) = (   0.0000000   0.9333594   0.0315143  )
        14        H      tau(  14) = (   0.0000000   0.7987597   0.8453748  )
        15        H      tau(  15) = (   0.5000000   0.0672998   0.0315143  )
        16        H      tau(  16) = (   0.5000000   1.6648192   0.8453748  )
        17        H      tau(  17) = (   0.6820699   1.3365463   1.6012691  )
        18        H      tau(  18) = (   0.3179301   0.3955728   0.7874086  )
        19        H      tau(  19) = (   0.6820699   0.3955728   0.7874086  )
        20        H      tau(  20) = (   0.3179301   1.3365463   1.6012691  )
        21        H      tau(  21) = (   0.1820699   0.4704867   1.6012691  )
        22        H      tau(  22) = (   0.8179301   1.2616323   0.7874086  )
        23        H      tau(  23) = (   0.1820699   1.2616323   0.7874086  )
        24        H      tau(  24) = (   0.8179301   0.4704867   1.6012691  )

     number of k points=   460

     Number of k-points >= 100: set verbosity='high' to print them.

     Dense  grid:   227903 G-vectors     FFT dimensions: (  54,  96,  90)

     Estimated max dynamical RAM per process >      59.45 MB

     Estimated total dynamical RAM >       7.27 GB

     Initial potential from superposition of free atoms

     starting charge      63.9998, renormalised to      64.0000
     Starting wfcs are   48 randomized atomic wfcs

     total cpu time spent up to now is        5.5 secs

     per-process dynamical memory:    66.4 Mb

     Self-consistent Calculation

     iteration #  1     ecut=    90.00 Ry     beta= 0.70
     Davidson diagonalization with overlap
     ethr =  1.00E-02,  avg # of iterations =  2.0

     total cpu time spent up to now is       15.4 secs

     total energy              =    -274.86164282 Ry
     estimated scf accuracy    <       2.46170907 Ry

     iteration #  2     ecut=    90.00 Ry     beta= 0.70
     Davidson diagonalization with overlap
     ethr =  3.85E-03,  avg # of iterations =  3.0

     total cpu time spent up to now is       28.7 secs

     total energy              =    -275.61706894 Ry
     estimated scf accuracy    <       1.87942296 Ry

     iteration #  3     ecut=    90.00 Ry     beta= 0.70
     Davidson diagonalization with overlap
     ethr =  2.94E-03,  avg # of iterations =  2.0

     total cpu time spent up to now is       38.6 secs

     total energy              =    -275.86406051 Ry
     estimated scf accuracy    <       0.08192010 Ry

     iteration #  4     ecut=    90.00 Ry     beta= 0.70
     Davidson diagonalization with overlap
     ethr =  1.28E-04,  avg # of iterations =  4.0

     negative rho (up, down):  1.893E-07 0.000E+00

     total cpu time spent up to now is       53.6 secs

     total energy              =    -275.92798944 Ry
     estimated scf accuracy    <       0.09567362 Ry

     iteration #  5     ecut=    90.00 Ry     beta= 0.70
     Davidson diagonalization with overlap
     ethr =  1.28E-04,  avg # of iterations =  2.0

     negative rho (up, down):  3.695E-07 0.000E+00

     total cpu time spent up to now is       61.7 secs

     total energy              =    -275.92848039 Ry
     estimated scf accuracy    <       0.01591752 Ry

     iteration #  6     ecut=    90.00 Ry     beta= 0.70
     Davidson diagonalization with overlap
     ethr =  2.49E-05,  avg # of iterations =  2.0

     negative rho (up, down):  4.680E-07 0.000E+00

     total cpu time spent up to now is       71.9 secs

     total energy              =    -275.93206302 Ry
     estimated scf accuracy    <       0.00043800 Ry

     iteration #  7     ecut=    90.00 Ry     beta= 0.70
     Davidson diagonalization with overlap
     ethr =  6.84E-07,  avg # of iterations =  5.0

     negative rho (up, down):  4.458E-07 0.000E+00

     total cpu time spent up to now is       86.7 secs

     total energy              =    -275.93282165 Ry
     estimated scf accuracy    <       0.00120692 Ry

     iteration #  8     ecut=    90.00 Ry     beta= 0.70
     Davidson diagonalization with overlap
     ethr =  6.84E-07,  avg # of iterations =  1.0

     negative rho (up, down):  3.510E-07 0.000E+00

     total cpu time spent up to now is       94.1 secs

     total energy              =    -275.93237526 Ry
     estimated scf accuracy    <       0.00130975 Ry

     iteration #  9     ecut=    90.00 Ry     beta= 0.70
     Davidson diagonalization with overlap
     ethr =  6.84E-07,  avg # of iterations =  2.0

     negative rho (up, down):  3.277E-07 0.000E+00

     total cpu time spent up to now is      104.5 secs

     total energy              =    -275.93234887 Ry
     estimated scf accuracy    <       0.00025431 Ry

     iteration # 10     ecut=    90.00 Ry     beta= 0.70
     Davidson diagonalization with overlap
     ethr =  3.97E-07,  avg # of iterations =  2.7

     negative rho (up, down):  3.287E-07 0.000E+00

     total cpu time spent up to now is      115.5 secs

     total energy              =    -275.93241861 Ry
     estimated scf accuracy    <       0.00000172 Ry

     iteration # 11     ecut=    90.00 Ry     beta= 0.70
     Davidson diagonalization with overlap
     ethr =  2.69E-09,  avg # of iterations =  6.0

     negative rho (up, down):  3.353E-07 0.000E+00

     total cpu time spent up to now is      134.6 secs

     total energy              =    -275.93242326 Ry
     estimated scf accuracy    <       0.00000451 Ry

     iteration # 12     ecut=    90.00 Ry     beta= 0.70
     Davidson diagonalization with overlap
     ethr =  2.69E-09,  avg # of iterations =  4.0

     negative rho (up, down):  3.457E-07 0.000E+00

     total cpu time spent up to now is      149.1 secs

     total energy              =    -275.93242558 Ry
     estimated scf accuracy    <       0.00000119 Ry

     iteration # 13     ecut=    90.00 Ry     beta= 0.70
     Davidson diagonalization with overlap
     ethr =  1.85E-09,  avg # of iterations =  2.0

     negative rho (up, down):  3.409E-07 0.000E+00

     total cpu time spent up to now is      159.2 secs

     total energy              =    -275.93242438 Ry
     estimated scf accuracy    <       0.00000373 Ry

     iteration # 14     ecut=    90.00 Ry     beta= 0.70
     Davidson diagonalization with overlap
     ethr =  1.85E-09,  avg # of iterations =  2.0

     negative rho (up, down):  3.377E-07 0.000E+00

     total cpu time spent up to now is      169.9 secs

     total energy              =    -275.93242441 Ry
     estimated scf accuracy    <       0.00000056 Ry

     iteration # 15     ecut=    90.00 Ry     beta= 0.70
     Davidson diagonalization with overlap
     ethr =  8.82E-10,  avg # of iterations =  3.0

     negative rho (up, down):  3.387E-07 0.000E+00

     total cpu time spent up to now is      182.5 secs

     End of self-consistent calculation

     Number of k-points >= 100: set verbosity='high' to print the bands.

     highest occupied level (ev):    -3.9268

!    total energy              =    -275.93242463 Ry
     estimated scf accuracy    <       0.00000005 Ry

     The total energy is the sum of the following terms:
     one-electron contribution =    -245.06085381 Ry
     hartree contribution      =     142.09308525 Ry
     xc contribution           =     -66.82390853 Ry
     ewald contribution        =    -106.14074754 Ry

     convergence has been achieved in  15 iterations

     Forces acting on atoms (cartesian axes, Ry/au):

     atom    1 type  2   force =     0.00000000   -0.05282099    0.03375538
     atom    2 type  2   force =     0.00000000    0.05282080    0.03375526
     atom    3 type  2   force =     0.00000000   -0.05282066    0.03375501
     atom    4 type  2   force =     0.00000000    0.05282049    0.03375504
     atom    5 type  2   force =     0.00000000   -0.04851140    0.04793769
     atom    6 type  2   force =     0.00000000    0.04851154    0.04793783
     atom    7 type  2   force =     0.00000000   -0.04851158    0.04793772
     atom    8 type  2   force =     0.00000000    0.04851154    0.04793772
     atom    9 type  1   force =     0.00000000   -0.00476936   -0.05813192
     atom   10 type  1   force =     0.00000000    0.00476937   -0.05813189
     atom   11 type  1   force =     0.00000000   -0.00476936   -0.05813193
     atom   12 type  1   force =     0.00000000    0.00476938   -0.05813196
     atom   13 type  1   force =     0.00000000    0.06294502    0.02290094
     atom   14 type  1   force =     0.00000000   -0.06294499    0.02290094
     atom   15 type  1   force =     0.00000000    0.06294511    0.02290096
     atom   16 type  1   force =     0.00000000   -0.06294496    0.02290093
     atom   17 type  1   force =    -0.06032935    0.02240878   -0.02323092
     atom   18 type  1   force =     0.06032934   -0.02240878   -0.02323094
     atom   19 type  1   force =    -0.06032934   -0.02240878   -0.02323094
     atom   20 type  1   force =     0.06032935    0.02240878   -0.02323092
     atom   21 type  1   force =    -0.06032940    0.02240886   -0.02323100
     atom   22 type  1   force =     0.06032938   -0.02240885   -0.02323101
     atom   23 type  1   force =    -0.06032938   -0.02240885   -0.02323101
     atom   24 type  1   force =     0.06032940    0.02240886   -0.02323100

     Total force =     0.321449     Total SCF correction =     0.000107


     Computing stress (Cartesian axis) and pressure

          total   stress  (Ry/bohr**3)                   (kbar)     P=      -81.39
  -0.00059829   0.00000000   0.00000000          -88.01        0.00        0.00
   0.00000000  -0.00054613   0.00000000            0.00      -80.34        0.00
   0.00000000   0.00000000  -0.00051534            0.00        0.00      -75.81


     Writing all to output data dir ./iceIh/iceIh.save/ :
     XML data file, charge density, pseudopotentials, collected wavefunctions

     init_run     :      5.06s CPU      5.19s WALL (       1 calls)
     electrons    :    174.65s CPU    176.97s WALL (       1 calls)
     forces       :      0.68s CPU      0.70s WALL (       1 calls)
     stress       :     10.15s CPU     10.17s WALL (       1 calls)

     Called by init_run:
     wfcinit      :      4.47s CPU      4.55s WALL (       1 calls)
     potinit      :      0.03s CPU      0.04s WALL (       1 calls)
     hinit0       :      0.47s CPU      0.49s WALL (       1 calls)

     Called by electrons:
     c_bands      :    156.38s CPU    158.46s WALL (      15 calls)
     sum_band     :     17.97s CPU     18.15s WALL (      15 calls)
     v_of_rho     :      0.20s CPU      0.20s WALL (      16 calls)
     newd         :      0.04s CPU      0.04s WALL (      16 calls)
     mix_rho      :      0.04s CPU      0.05s WALL (      15 calls)

     Called by c_bands:
     init_us_2    :      2.58s CPU      2.67s WALL (    3795 calls)
     cegterg      :    150.95s CPU    152.20s WALL (    1725 calls)

     Called by *egterg:
     cdiaghg      :     11.90s CPU     11.94s WALL (    6661 calls)
     h_psi        :    116.24s CPU    117.43s WALL (    6776 calls)
     s_psi        :      4.92s CPU      4.94s WALL (    6776 calls)
     g_psi        :      0.46s CPU      0.46s WALL (    4936 calls)

     Called by h_psi:
     h_psi:calbec :      8.45s CPU      8.51s WALL (    6776 calls)
     vloc_psi     :    101.61s CPU    102.69s WALL (    6776 calls)
     add_vuspsi   :      5.18s CPU      5.22s WALL (    6776 calls)

     General routines
     calbec       :     10.72s CPU     10.81s WALL (    9076 calls)
     fft          :      0.57s CPU      0.58s WALL (     184 calls)
     ffts         :      0.01s CPU      0.01s WALL (      15 calls)
     fftw         :    104.93s CPU    105.99s WALL (  423734 calls)

     Parallel routines

     PWSCF        :   3m13.14s CPU   3m21.18s WALL


   This run was terminated on:  21:40:44  24Mar2026            

=------------------------------------------------------------------------------=
   JOB DONE.
=------------------------------------------------------------------------------=
