
     Program PWSCF v.7.3.1 starts on 24Mar2026 at 21:47:52 

     This program is part of the open-source Quantum ESPRESSO suite
     for quantum simulation of materials; please cite
         "P. Giannozzi et al., J. Phys.:Condens. Matter 21 395502 (2009);
         "P. Giannozzi et al., J. Phys.:Condens. Matter 29 465901 (2017);
         "P. Giannozzi et al., J. Chem. Phys. 152 154105 (2020);
          URL http://www.quantum-espresso.org", 
     in publications or presentations arising from this work. More details at
     http://www.quantum-espresso.org/quote

     Parallel version (MPI), running on   128 processors

     MPI processes distributed on     1 nodes
     236257 MiB available memory on the printing compute node when the environment starts

     Waiting for input...
     Reading input from standard input

     Current dimensions of program PWSCF are:
     Max number of different atomic species (ntypx) = 10
     Max number of k-points (npk) =  40000
     Max angular momentum in pseudopotentials (lmaxx) =  4
     Found identity + ( -0.5000  0.5000 -0.0000) symmetry
     This is a supercell, fractional translations are disabled

     K-points division:     npool     =       4
     R & G space division:  proc/nbgrp/npool/nimage =      32
     Subspace diagonalization in iterative solution of the eigenvalue problem:
     a serial algorithm will be used


     Parallelization info
     --------------------
     sticks:   dense  smooth     PW     G-vecs:    dense   smooth      PW
     Min         123     123     34                 7241     7241    1040
     Max         124     124     35                 7246     7246    1043
     Sum        3949    3949   1089               231755   231755   33283

     Using Slab Decomposition



     bravais-lattice index     =            8
     lattice parameter (alat)  =       8.9329  a.u.
     unit-cell volume          =    2009.7340 (a.u.)^3
     number of atoms/cell      =           24
     number of atomic types    =            2
     number of electrons       =        64.00
     number of Kohn-Sham states=           32
     kinetic-energy cutoff     =      90.0000  Ry
     charge density cutoff     =     360.0000  Ry
     scf convergence threshold =      1.0E-07
     mixing beta               =       0.7000
     number of iterations used =            8  plain     mixing
     Exchange-correlation=  SLA  PW   PBE  PBE
                           (   1   4   3   4   0   0   0)

     celldm(1)=   8.932924  celldm(2)=   1.732119  celldm(3)=   1.627721
     celldm(4)=   0.000000  celldm(5)=   0.000000  celldm(6)=   0.000000

     crystal axes: (cart. coord. in units of alat)
               a(1) = (   1.000000   0.000000   0.000000 )  
               a(2) = (   0.000000   1.732119   0.000000 )  
               a(3) = (   0.000000   0.000000   1.627721 )  

     reciprocal axes: (cart. coord. in units 2 pi/alat)
               b(1) = (  1.000000  0.000000  0.000000 )  
               b(2) = (  0.000000  0.577328  0.000000 )  
               b(3) = (  0.000000  0.000000  0.614356 )  


     PseudoPot. # 1 for H  read from file:
     ./H.pbe-van_ak.UPF
     MD5 check sum: 077eb6d537518a38cb46c6de387227b7
     Pseudo is Ultrasoft, Zval =  1.0
     Generated by new atomic code, or converted to UPF format
     Using radial grid of  615 points,  1 beta functions with: 
                l(1) =   0
     Q(r) pseudized with  8 coefficients,  rinner =    0.800

     PseudoPot. # 2 for O  read from file:
     ./O.pbe-van_ak.UPF
     MD5 check sum: 78c19812648e8988a0fe644b0f25305e
     Pseudo is Ultrasoft, Zval =  6.0
     Generated by new atomic code, or converted to UPF format
     Using radial grid of  737 points,  4 beta functions with: 
                l(1) =   0
                l(2) =   0
                l(3) =   1
                l(4) =   1
     Q(r) pseudized with  8 coefficients,  rinner =    0.800   0.800   0.800


     atomic species   valence    mass     pseudopotential
     H                 1.00     1.00800     H ( 1.00)
     O                 6.00    16.00000     O ( 1.00)

      2 Sym. Ops. (no inversion) found



   Cartesian axes

     site n.     atom                  positions (alat units)
         1        O      tau(   1) = (   0.0000000   1.1484866   0.0984416  )
         2        O      tau(   2) = (   0.0000000   0.5836324   0.9123021  )
         3        O      tau(   3) = (   0.5000000   0.2824271   0.0984415  )
         4        O      tau(   4) = (   0.5000000   1.4496920   0.9123021  )
         5        O      tau(   5) = (   0.5000000   1.4402433   1.5187349  )
         6        O      tau(   6) = (   0.5000000   0.2918758   0.7048744  )
         7        O      tau(   7) = (   0.0000000   0.5741838   1.5187348  )
         8        O      tau(   8) = (   0.0000000   1.1579353   0.7048743  )
         9        H      tau(   9) = (   0.0000000   1.1487418   0.3216685  )
        10        H      tau(  10) = (   0.0000000   0.5833772   1.1355290  )
        11        H      tau(  11) = (   0.5000000   0.2826823   0.3216685  )
        12        H      tau(  12) = (   0.5000000   1.4494367   1.1355290  )
        13        H      tau(  13) = (   0.0000000   0.9333594   0.0315143  )
        14        H      tau(  14) = (   0.0000000   0.7987597   0.8453748  )
        15        H      tau(  15) = (   0.5000000   0.0672998   0.0315143  )
        16        H      tau(  16) = (   0.5000000   1.6648192   0.8453748  )
        17        H      tau(  17) = (   0.6820699   1.3365463   1.6012691  )
        18        H      tau(  18) = (   0.3179301   0.3955728   0.7874086  )
        19        H      tau(  19) = (   0.6820699   0.3955728   0.7874086  )
        20        H      tau(  20) = (   0.3179301   1.3365463   1.6012691  )
        21        H      tau(  21) = (   0.1820699   0.4704867   1.6012691  )
        22        H      tau(  22) = (   0.8179301   1.2616323   0.7874086  )
        23        H      tau(  23) = (   0.1820699   1.2616323   0.7874086  )
        24        H      tau(  24) = (   0.8179301   0.4704867   1.6012691  )

     number of k points=   460

     Number of k-points >= 100: set verbosity='high' to print them.

     Dense  grid:   231755 G-vectors     FFT dimensions: (  54,  96,  90)

     Estimated max dynamical RAM per process >      60.41 MB

     Estimated total dynamical RAM >       7.39 GB

     Initial potential from superposition of free atoms

     starting charge      63.9998, renormalised to      64.0000
     Starting wfcs are   48 randomized atomic wfcs

     total cpu time spent up to now is        5.5 secs

     per-process dynamical memory:    67.5 Mb

     Self-consistent Calculation

     iteration #  1     ecut=    90.00 Ry     beta= 0.70
     Davidson diagonalization with overlap
     ethr =  1.00E-02,  avg # of iterations =  2.0

     total cpu time spent up to now is       15.4 secs

     total energy              =    -274.84211169 Ry
     estimated scf accuracy    <       2.45054570 Ry

     iteration #  2     ecut=    90.00 Ry     beta= 0.70
     Davidson diagonalization with overlap
     ethr =  3.83E-03,  avg # of iterations =  3.0

     total cpu time spent up to now is       28.8 secs

     total energy              =    -275.59273394 Ry
     estimated scf accuracy    <       1.91460817 Ry

     iteration #  3     ecut=    90.00 Ry     beta= 0.70
     Davidson diagonalization with overlap
     ethr =  2.99E-03,  avg # of iterations =  2.0

     total cpu time spent up to now is       38.9 secs

     total energy              =    -275.84258302 Ry
     estimated scf accuracy    <       0.08497152 Ry

     iteration #  4     ecut=    90.00 Ry     beta= 0.70
     Davidson diagonalization with overlap
     ethr =  1.33E-04,  avg # of iterations =  4.0

     total cpu time spent up to now is       54.0 secs

     total energy              =    -275.90886918 Ry
     estimated scf accuracy    <       0.09787897 Ry

     iteration #  5     ecut=    90.00 Ry     beta= 0.70
     Davidson diagonalization with overlap
     ethr =  1.33E-04,  avg # of iterations =  2.0

     negative rho (up, down):  1.341E-07 0.000E+00

     total cpu time spent up to now is       62.2 secs

     total energy              =    -275.90929071 Ry
     estimated scf accuracy    <       0.01650454 Ry

     iteration #  6     ecut=    90.00 Ry     beta= 0.70
     Davidson diagonalization with overlap
     ethr =  2.58E-05,  avg # of iterations =  2.0

     negative rho (up, down):  2.057E-07 0.000E+00

     total cpu time spent up to now is       72.4 secs

     total energy              =    -275.91291257 Ry
     estimated scf accuracy    <       0.00047174 Ry

     iteration #  7     ecut=    90.00 Ry     beta= 0.70
     Davidson diagonalization with overlap
     ethr =  7.37E-07,  avg # of iterations =  5.0

     negative rho (up, down):  1.947E-07 0.000E+00

     total cpu time spent up to now is       87.2 secs

     total energy              =    -275.91368192 Ry
     estimated scf accuracy    <       0.00116485 Ry

     iteration #  8     ecut=    90.00 Ry     beta= 0.70
     Davidson diagonalization with overlap
     ethr =  7.37E-07,  avg # of iterations =  1.0

     negative rho (up, down):  1.237E-07 0.000E+00

     total cpu time spent up to now is       94.6 secs

     total energy              =    -275.91325337 Ry
     estimated scf accuracy    <       0.00127591 Ry

     iteration #  9     ecut=    90.00 Ry     beta= 0.70
     Davidson diagonalization with overlap
     ethr =  7.37E-07,  avg # of iterations =  2.0

     negative rho (up, down):  1.051E-07 0.000E+00

     total cpu time spent up to now is      104.9 secs

     total energy              =    -275.91322296 Ry
     estimated scf accuracy    <       0.00025585 Ry

     iteration # 10     ecut=    90.00 Ry     beta= 0.70
     Davidson diagonalization with overlap
     ethr =  4.00E-07,  avg # of iterations =  2.5

     negative rho (up, down):  1.053E-07 0.000E+00

     total cpu time spent up to now is      116.0 secs

     total energy              =    -275.91328630 Ry
     estimated scf accuracy    <       0.00000362 Ry

     iteration # 11     ecut=    90.00 Ry     beta= 0.70
     Davidson diagonalization with overlap
     ethr =  5.66E-09,  avg # of iterations =  5.2

     negative rho (up, down):  1.095E-07 0.000E+00

     total cpu time spent up to now is      133.8 secs

     total energy              =    -275.91329286 Ry
     estimated scf accuracy    <       0.00000598 Ry

     iteration # 12     ecut=    90.00 Ry     beta= 0.70
     Davidson diagonalization with overlap
     ethr =  5.66E-09,  avg # of iterations =  2.2

     negative rho (up, down):  1.195E-07 0.000E+00

     total cpu time spent up to now is      145.1 secs

     total energy              =    -275.91329405 Ry
     estimated scf accuracy    <       0.00000021 Ry

     iteration # 13     ecut=    90.00 Ry     beta= 0.70
     Davidson diagonalization with overlap
     ethr =  3.32E-10,  avg # of iterations =  6.7

     negative rho (up, down):  1.138E-07 0.000E+00

     total cpu time spent up to now is      167.3 secs

     total energy              =    -275.91329296 Ry
     estimated scf accuracy    <       0.00000669 Ry

     iteration # 14     ecut=    90.00 Ry     beta= 0.70
     Davidson diagonalization with overlap
     ethr =  3.32E-10,  avg # of iterations =  5.0

     negative rho (up, down):  1.123E-07 0.000E+00

     total cpu time spent up to now is      185.8 secs

     End of self-consistent calculation

     Number of k-points >= 100: set verbosity='high' to print the bands.

     highest occupied level (ev):    -3.9813

!    total energy              =    -275.91329384 Ry
     estimated scf accuracy    <       0.00000010 Ry

     The total energy is the sum of the following terms:
     one-electron contribution =    -246.17418298 Ry
     hartree contribution      =     142.52283998 Ry
     xc contribution           =     -66.72772185 Ry
     ewald contribution        =    -105.53422899 Ry

     convergence has been achieved in  14 iterations

     Forces acting on atoms (cartesian axes, Ry/au):

     atom    1 type  2   force =     0.00000000   -0.05825912    0.03792988
     atom    2 type  2   force =     0.00000000    0.05825945    0.03793026
     atom    3 type  2   force =     0.00000000   -0.05825909    0.03792983
     atom    4 type  2   force =     0.00000000    0.05825925    0.03793009
     atom    5 type  2   force =     0.00000000   -0.05370882    0.05200215
     atom    6 type  2   force =     0.00000000    0.05370834    0.05200176
     atom    7 type  2   force =     0.00000000   -0.05370865    0.05200203
     atom    8 type  2   force =     0.00000000    0.05370850    0.05200189
     atom    9 type  1   force =     0.00000000   -0.00517705   -0.06464521
     atom   10 type  1   force =     0.00000000    0.00517706   -0.06464507
     atom   11 type  1   force =     0.00000000   -0.00517704   -0.06464524
     atom   12 type  1   force =     0.00000000    0.00517705   -0.06464507
     atom   13 type  1   force =     0.00000000    0.06863377    0.02518827
     atom   14 type  1   force =     0.00000000   -0.06863369    0.02518829
     atom   15 type  1   force =     0.00000000    0.06863376    0.02518826
     atom   16 type  1   force =     0.00000000   -0.06863377    0.02518831
     atom   17 type  1   force =    -0.06556236    0.02500183   -0.02523752
     atom   18 type  1   force =     0.06556228   -0.02500183   -0.02523753
     atom   19 type  1   force =    -0.06556228   -0.02500183   -0.02523753
     atom   20 type  1   force =     0.06556236    0.02500183   -0.02523752
     atom   21 type  1   force =    -0.06556235    0.02500188   -0.02523758
     atom   22 type  1   force =     0.06556228   -0.02500187   -0.02523758
     atom   23 type  1   force =    -0.06556228   -0.02500187   -0.02523758
     atom   24 type  1   force =     0.06556235    0.02500188   -0.02523758

     Total force =     0.352666     Total SCF correction =     0.000177


     Computing stress (Cartesian axis) and pressure

          total   stress  (Ry/bohr**3)                   (kbar)     P=      -87.72
  -0.00064023   0.00000000   0.00000000          -94.18        0.00        0.00
   0.00000000  -0.00058787  -0.00000000            0.00      -86.48       -0.00
   0.00000000  -0.00000000  -0.00056088            0.00       -0.00      -82.51


     Writing all to output data dir ./iceIh/iceIh.save/ :
     XML data file, charge density, pseudopotentials, collected wavefunctions

     init_run     :      5.10s CPU      5.23s WALL (       1 calls)
     electrons    :    178.13s CPU    180.37s WALL (       1 calls)
     forces       :      0.70s CPU      0.70s WALL (       1 calls)
     stress       :     10.32s CPU     10.35s WALL (       1 calls)

     Called by init_run:
     wfcinit      :      4.49s CPU      4.58s WALL (       1 calls)
     potinit      :      0.03s CPU      0.04s WALL (       1 calls)
     hinit0       :      0.48s CPU      0.48s WALL (       1 calls)

     Called by electrons:
     c_bands      :    160.95s CPU    162.90s WALL (      14 calls)
     sum_band     :     16.90s CPU     17.12s WALL (      14 calls)
     v_of_rho     :      0.18s CPU      0.19s WALL (      15 calls)
     newd         :      0.03s CPU      0.04s WALL (      15 calls)
     mix_rho      :      0.04s CPU      0.04s WALL (      14 calls)

     Called by c_bands:
     init_us_2    :      2.41s CPU      2.50s WALL (    3565 calls)
     cegterg      :    155.41s CPU    156.60s WALL (    1610 calls)

     Called by *egterg:
     cdiaghg      :     12.41s CPU     12.45s WALL (    6857 calls)
     h_psi        :    118.35s CPU    119.49s WALL (    6972 calls)
     s_psi        :      5.10s CPU      5.12s WALL (    6972 calls)
     g_psi        :      0.49s CPU      0.49s WALL (    5247 calls)

     Called by h_psi:
     h_psi:calbec :      8.89s CPU      8.96s WALL (    6972 calls)
     vloc_psi     :    103.06s CPU    104.06s WALL (    6972 calls)
     add_vuspsi   :      5.42s CPU      5.47s WALL (    6972 calls)

     General routines
     calbec       :     11.07s CPU     11.17s WALL (    9157 calls)
     fft          :      0.56s CPU      0.57s WALL (     173 calls)
     ffts         :      0.01s CPU      0.01s WALL (      14 calls)
     fftw         :    105.44s CPU    106.46s WALL (  423384 calls)

     Parallel routines

     PWSCF        :   3m17.40s CPU   3m24.59s WALL


   This run was terminated on:  21:51:16  24Mar2026            

=------------------------------------------------------------------------------=
   JOB DONE.
=------------------------------------------------------------------------------=
