
     Program PWSCF v.7.3.1 starts on 24Mar2026 at 22: 2:22 

     This program is part of the open-source Quantum ESPRESSO suite
     for quantum simulation of materials; please cite
         "P. Giannozzi et al., J. Phys.:Condens. Matter 21 395502 (2009);
         "P. Giannozzi et al., J. Phys.:Condens. Matter 29 465901 (2017);
         "P. Giannozzi et al., J. Chem. Phys. 152 154105 (2020);
          URL http://www.quantum-espresso.org", 
     in publications or presentations arising from this work. More details at
     http://www.quantum-espresso.org/quote

     Parallel version (MPI), running on   128 processors

     MPI processes distributed on     1 nodes
     235927 MiB available memory on the printing compute node when the environment starts

     Waiting for input...
     Reading input from standard input

     Current dimensions of program PWSCF are:
     Max number of different atomic species (ntypx) = 10
     Max number of k-points (npk) =  40000
     Max angular momentum in pseudopotentials (lmaxx) =  4
     Found identity + ( -0.5000  0.5000 -0.0000) symmetry
     This is a supercell, fractional translations are disabled

     K-points division:     npool     =       4
     R & G space division:  proc/nbgrp/npool/nimage =      32
     Subspace diagonalization in iterative solution of the eigenvalue problem:
     a serial algorithm will be used


     Parallelization info
     --------------------
     sticks:   dense  smooth     PW     G-vecs:    dense   smooth      PW
     Min         125     125     34                 7405     7405    1064
     Max         126     126     35                 7408     7408    1069
     Sum        4025    4025   1113               237009   237009   34123

     Using Slab Decomposition



     bravais-lattice index     =            8
     lattice parameter (alat)  =       9.0010  a.u.
     unit-cell volume          =    2056.0217 (a.u.)^3
     number of atoms/cell      =           24
     number of atomic types    =            2
     number of electrons       =        64.00
     number of Kohn-Sham states=           32
     kinetic-energy cutoff     =      90.0000  Ry
     charge density cutoff     =     360.0000  Ry
     scf convergence threshold =      1.0E-07
     mixing beta               =       0.7000
     number of iterations used =            8  plain     mixing
     Exchange-correlation=  SLA  PW   PBE  PBE
                           (   1   4   3   4   0   0   0)

     celldm(1)=   9.000984  celldm(2)=   1.732119  celldm(3)=   1.627721
     celldm(4)=   0.000000  celldm(5)=   0.000000  celldm(6)=   0.000000

     crystal axes: (cart. coord. in units of alat)
               a(1) = (   1.000000   0.000000   0.000000 )  
               a(2) = (   0.000000   1.732119   0.000000 )  
               a(3) = (   0.000000   0.000000   1.627721 )  

     reciprocal axes: (cart. coord. in units 2 pi/alat)
               b(1) = (  1.000000  0.000000  0.000000 )  
               b(2) = (  0.000000  0.577328  0.000000 )  
               b(3) = (  0.000000  0.000000  0.614356 )  


     PseudoPot. # 1 for H  read from file:
     ./H.pbe-van_ak.UPF
     MD5 check sum: 077eb6d537518a38cb46c6de387227b7
     Pseudo is Ultrasoft, Zval =  1.0
     Generated by new atomic code, or converted to UPF format
     Using radial grid of  615 points,  1 beta functions with: 
                l(1) =   0
     Q(r) pseudized with  8 coefficients,  rinner =    0.800

     PseudoPot. # 2 for O  read from file:
     ./O.pbe-van_ak.UPF
     MD5 check sum: 78c19812648e8988a0fe644b0f25305e
     Pseudo is Ultrasoft, Zval =  6.0
     Generated by new atomic code, or converted to UPF format
     Using radial grid of  737 points,  4 beta functions with: 
                l(1) =   0
                l(2) =   0
                l(3) =   1
                l(4) =   1
     Q(r) pseudized with  8 coefficients,  rinner =    0.800   0.800   0.800


     atomic species   valence    mass     pseudopotential
     H                 1.00     1.00800     H ( 1.00)
     O                 6.00    16.00000     O ( 1.00)

      2 Sym. Ops. (no inversion) found



   Cartesian axes

     site n.     atom                  positions (alat units)
         1        O      tau(   1) = (   0.0000000   1.1484866   0.0984416  )
         2        O      tau(   2) = (   0.0000000   0.5836324   0.9123021  )
         3        O      tau(   3) = (   0.5000000   0.2824271   0.0984415  )
         4        O      tau(   4) = (   0.5000000   1.4496920   0.9123021  )
         5        O      tau(   5) = (   0.5000000   1.4402433   1.5187349  )
         6        O      tau(   6) = (   0.5000000   0.2918758   0.7048744  )
         7        O      tau(   7) = (   0.0000000   0.5741838   1.5187348  )
         8        O      tau(   8) = (   0.0000000   1.1579353   0.7048743  )
         9        H      tau(   9) = (   0.0000000   1.1487418   0.3216685  )
        10        H      tau(  10) = (   0.0000000   0.5833772   1.1355290  )
        11        H      tau(  11) = (   0.5000000   0.2826823   0.3216685  )
        12        H      tau(  12) = (   0.5000000   1.4494367   1.1355290  )
        13        H      tau(  13) = (   0.0000000   0.9333594   0.0315143  )
        14        H      tau(  14) = (   0.0000000   0.7987597   0.8453748  )
        15        H      tau(  15) = (   0.5000000   0.0672998   0.0315143  )
        16        H      tau(  16) = (   0.5000000   1.6648192   0.8453748  )
        17        H      tau(  17) = (   0.6820699   1.3365463   1.6012691  )
        18        H      tau(  18) = (   0.3179301   0.3955728   0.7874086  )
        19        H      tau(  19) = (   0.6820699   0.3955728   0.7874086  )
        20        H      tau(  20) = (   0.3179301   1.3365463   1.6012691  )
        21        H      tau(  21) = (   0.1820699   0.4704867   1.6012691  )
        22        H      tau(  22) = (   0.8179301   1.2616323   0.7874086  )
        23        H      tau(  23) = (   0.1820699   1.2616323   0.7874086  )
        24        H      tau(  24) = (   0.8179301   0.4704867   1.6012691  )

     number of k points=   460

     Number of k-points >= 100: set verbosity='high' to print them.

     Dense  grid:   237009 G-vectors     FFT dimensions: (  60,  96,  90)

     Estimated max dynamical RAM per process >      61.88 MB

     Estimated total dynamical RAM >       7.57 GB

     Initial potential from superposition of free atoms

     starting charge      63.9998, renormalised to      64.0000
     Starting wfcs are   48 randomized atomic wfcs

     total cpu time spent up to now is        5.7 secs

     per-process dynamical memory:    69.6 Mb

     Self-consistent Calculation

     iteration #  1     ecut=    90.00 Ry     beta= 0.70
     Davidson diagonalization with overlap
     ethr =  1.00E-02,  avg # of iterations =  2.0

     total cpu time spent up to now is       16.0 secs

     total energy              =    -274.81343568 Ry
     estimated scf accuracy    <       2.43722985 Ry

     iteration #  2     ecut=    90.00 Ry     beta= 0.70
     Davidson diagonalization with overlap
     ethr =  3.81E-03,  avg # of iterations =  3.0

     total cpu time spent up to now is       29.7 secs

     total energy              =    -275.55817780 Ry
     estimated scf accuracy    <       1.96209060 Ry

     iteration #  3     ecut=    90.00 Ry     beta= 0.70
     Davidson diagonalization with overlap
     ethr =  3.07E-03,  avg # of iterations =  2.0

     total cpu time spent up to now is       39.9 secs

     total energy              =    -275.81164931 Ry
     estimated scf accuracy    <       0.08923519 Ry

     iteration #  4     ecut=    90.00 Ry     beta= 0.70
     Davidson diagonalization with overlap
     ethr =  1.39E-04,  avg # of iterations =  4.0

     total cpu time spent up to now is       55.3 secs

     total energy              =    -275.88118733 Ry
     estimated scf accuracy    <       0.10074099 Ry

     iteration #  5     ecut=    90.00 Ry     beta= 0.70
     Davidson diagonalization with overlap
     ethr =  1.39E-04,  avg # of iterations =  2.0

     total cpu time spent up to now is       63.6 secs

     total energy              =    -275.88144476 Ry
     estimated scf accuracy    <       0.01729611 Ry

     iteration #  6     ecut=    90.00 Ry     beta= 0.70
     Davidson diagonalization with overlap
     ethr =  2.70E-05,  avg # of iterations =  2.0

     total cpu time spent up to now is       74.0 secs

     total energy              =    -275.88521708 Ry
     estimated scf accuracy    <       0.00045993 Ry

     iteration #  7     ecut=    90.00 Ry     beta= 0.70
     Davidson diagonalization with overlap
     ethr =  7.19E-07,  avg # of iterations =  5.0

     total cpu time spent up to now is       89.3 secs

     total energy              =    -275.88595328 Ry
     estimated scf accuracy    <       0.00117853 Ry

     iteration #  8     ecut=    90.00 Ry     beta= 0.70
     Davidson diagonalization with overlap
     ethr =  7.19E-07,  avg # of iterations =  1.0

     total cpu time spent up to now is       96.8 secs

     total energy              =    -275.88552259 Ry
     estimated scf accuracy    <       0.00121061 Ry

     iteration #  9     ecut=    90.00 Ry     beta= 0.70
     Davidson diagonalization with overlap
     ethr =  7.19E-07,  avg # of iterations =  2.0

     total cpu time spent up to now is      107.6 secs

     total energy              =    -275.88552324 Ry
     estimated scf accuracy    <       0.00019671 Ry

     iteration # 10     ecut=    90.00 Ry     beta= 0.70
     Davidson diagonalization with overlap
     ethr =  3.07E-07,  avg # of iterations =  3.0

     total cpu time spent up to now is      120.3 secs

     total energy              =    -275.88558830 Ry
     estimated scf accuracy    <       0.00000242 Ry

     iteration # 11     ecut=    90.00 Ry     beta= 0.70
     Davidson diagonalization with overlap
     ethr =  3.78E-09,  avg # of iterations =  3.8

     total cpu time spent up to now is      134.5 secs

     total energy              =    -275.88558977 Ry
     estimated scf accuracy    <       0.00000228 Ry

     iteration # 12     ecut=    90.00 Ry     beta= 0.70
     Davidson diagonalization with overlap
     ethr =  3.55E-09,  avg # of iterations =  3.0

     total cpu time spent up to now is      146.6 secs

     total energy              =    -275.88559131 Ry
     estimated scf accuracy    <       0.00000078 Ry

     iteration # 13     ecut=    90.00 Ry     beta= 0.70
     Davidson diagonalization with overlap
     ethr =  1.22E-09,  avg # of iterations =  3.0

     total cpu time spent up to now is      159.5 secs

     total energy              =    -275.88559002 Ry
     estimated scf accuracy    <       0.00000443 Ry

     iteration # 14     ecut=    90.00 Ry     beta= 0.70
     Davidson diagonalization with overlap
     ethr =  1.22E-09,  avg # of iterations =  3.0

     total cpu time spent up to now is      172.7 secs

     total energy              =    -275.88559026 Ry
     estimated scf accuracy    <       0.00000041 Ry

     iteration # 15     ecut=    90.00 Ry     beta= 0.70
     Davidson diagonalization with overlap
     ethr =  6.39E-10,  avg # of iterations =  2.0

     total cpu time spent up to now is      183.7 secs

     End of self-consistent calculation

     Number of k-points >= 100: set verbosity='high' to print the bands.

     highest occupied level (ev):    -4.0535

!    total energy              =    -275.88559039 Ry
     estimated scf accuracy    <          9.8E-09 Ry

     The total energy is the sum of the following terms:
     one-electron contribution =    -247.64840035 Ry
     hartree contribution      =     143.10357325 Ry
     xc contribution           =     -66.60452470 Ry
     ewald contribution        =    -104.73623860 Ry

     convergence has been achieved in  15 iterations

     Forces acting on atoms (cartesian axes, Ry/au):

     atom    1 type  2   force =     0.00000000   -0.06499735    0.04360128
     atom    2 type  2   force =     0.00000000    0.06499733    0.04360124
     atom    3 type  2   force =     0.00000000   -0.06499749    0.04360127
     atom    4 type  2   force =     0.00000000    0.06499725    0.04360125
     atom    5 type  2   force =     0.00000000   -0.06001680    0.05674427
     atom    6 type  2   force =     0.00000000    0.06001691    0.05674440
     atom    7 type  2   force =     0.00000000   -0.06001694    0.05674444
     atom    8 type  2   force =     0.00000000    0.06001678    0.05674434
     atom    9 type  1   force =     0.00000000   -0.00567920   -0.07295005
     atom   10 type  1   force =     0.00000000    0.00567922   -0.07295000
     atom   11 type  1   force =     0.00000000   -0.00567921   -0.07295004
     atom   12 type  1   force =     0.00000000    0.00567923   -0.07295005
     atom   13 type  1   force =     0.00000000    0.07586753    0.02814754
     atom   14 type  1   force =     0.00000000   -0.07586753    0.02814755
     atom   15 type  1   force =     0.00000000    0.07586763    0.02814757
     atom   16 type  1   force =     0.00000000   -0.07586747    0.02814755
     atom   17 type  1   force =    -0.07227150    0.02832109   -0.02777156
     atom   18 type  1   force =     0.07227143   -0.02832104   -0.02777155
     atom   19 type  1   force =    -0.07227143   -0.02832104   -0.02777155
     atom   20 type  1   force =     0.07227150    0.02832109   -0.02777156
     atom   21 type  1   force =    -0.07227142    0.02832108   -0.02777157
     atom   22 type  1   force =     0.07227141   -0.02832108   -0.02777159
     atom   23 type  1   force =    -0.07227141   -0.02832108   -0.02777159
     atom   24 type  1   force =     0.07227142    0.02832108   -0.02777157

     Total force =     0.392137     Total SCF correction =     0.000047


     Computing stress (Cartesian axis) and pressure

          total   stress  (Ry/bohr**3)                   (kbar)     P=      -94.43
  -0.00068450   0.00000000   0.00000000         -100.69        0.00        0.00
   0.00000000  -0.00063185  -0.00000000            0.00      -92.95       -0.00
   0.00000000  -0.00000000  -0.00060934            0.00       -0.00      -89.64


     Writing all to output data dir ./iceIh/iceIh.save/ :
     XML data file, charge density, pseudopotentials, collected wavefunctions

     init_run     :      5.29s CPU      5.40s WALL (       1 calls)
     electrons    :    175.51s CPU    178.01s WALL (       1 calls)
     forces       :      0.73s CPU      0.74s WALL (       1 calls)
     stress       :     10.62s CPU     10.62s WALL (       1 calls)

     Called by init_run:
     wfcinit      :      4.60s CPU      4.67s WALL (       1 calls)
     potinit      :      0.02s CPU      0.04s WALL (       1 calls)
     hinit0       :      0.55s CPU      0.56s WALL (       1 calls)

     Called by electrons:
     c_bands      :    156.48s CPU    158.70s WALL (      15 calls)
     sum_band     :     18.70s CPU     18.89s WALL (      15 calls)
     v_of_rho     :      0.21s CPU      0.22s WALL (      16 calls)
     newd         :      0.04s CPU      0.05s WALL (      16 calls)
     mix_rho      :      0.05s CPU      0.05s WALL (      15 calls)

     Called by c_bands:
     init_us_2    :      2.73s CPU      2.84s WALL (    3795 calls)
     cegterg      :    151.47s CPU    152.87s WALL (    1725 calls)

     Called by *egterg:
     cdiaghg      :     11.37s CPU     11.41s WALL (    6417 calls)
     h_psi        :    116.97s CPU    118.31s WALL (    6532 calls)
     s_psi        :      5.08s CPU      5.11s WALL (    6532 calls)
     g_psi        :      0.47s CPU      0.47s WALL (    4692 calls)

     Called by h_psi:
     h_psi:calbec :      8.63s CPU      8.71s WALL (    6532 calls)
     vloc_psi     :    101.91s CPU    103.09s WALL (    6532 calls)
     add_vuspsi   :      5.30s CPU      5.34s WALL (    6532 calls)

     General routines
     calbec       :     10.99s CPU     11.11s WALL (    8832 calls)
     fft          :      0.64s CPU      0.65s WALL (     184 calls)
     ffts         :      0.01s CPU      0.01s WALL (      15 calls)
     fftw         :    104.87s CPU    106.00s WALL (  416602 calls)

     Parallel routines

     PWSCF        :   3m15.17s CPU   3m23.68s WALL


   This run was terminated on:  22: 5:46  24Mar2026            

=------------------------------------------------------------------------------=
   JOB DONE.
=------------------------------------------------------------------------------=
