
     Program PWSCF v.7.3.1 starts on 22Mar2026 at  2:50:41 

     This program is part of the open-source Quantum ESPRESSO suite
     for quantum simulation of materials; please cite
         "P. Giannozzi et al., J. Phys.:Condens. Matter 21 395502 (2009);
         "P. Giannozzi et al., J. Phys.:Condens. Matter 29 465901 (2017);
         "P. Giannozzi et al., J. Chem. Phys. 152 154105 (2020);
          URL http://www.quantum-espresso.org", 
     in publications or presentations arising from this work. More details at
     http://www.quantum-espresso.org/quote

     Parallel version (MPI), running on   128 processors

     MPI processes distributed on     1 nodes
     235748 MiB available memory on the printing compute node when the environment starts

     Waiting for input...
     Reading input from standard input

     Current dimensions of program PWSCF are:
     Max number of different atomic species (ntypx) = 10
     Max number of k-points (npk) =  40000
     Max angular momentum in pseudopotentials (lmaxx) =  4
     Found identity + ( -0.5000 -0.5000  0.0000) symmetry
     This is a supercell, fractional translations are disabled

     K-points division:     npool     =       4
     R & G space division:  proc/nbgrp/npool/nimage =      32
     Subspace diagonalization in iterative solution of the eigenvalue problem:
     a serial algorithm will be used


     Parallelization info
     --------------------
     sticks:   dense  smooth     PW     G-vecs:    dense   smooth      PW
     Min         125     125     34                 7405     7405    1064
     Max         126     126     35                 7408     7408    1069
     Sum        4025    4025   1113               237009   237009   34123

     Using Slab Decomposition



     bravais-lattice index     =            8
     lattice parameter (alat)  =       9.0010  a.u.
     unit-cell volume          =    2056.0217 (a.u.)^3
     number of atoms/cell      =           24
     number of atomic types    =            2
     number of electrons       =        64.00
     number of Kohn-Sham states=           32
     kinetic-energy cutoff     =      90.0000  Ry
     charge density cutoff     =     360.0000  Ry
     scf convergence threshold =      1.0E-07
     mixing beta               =       0.7000
     number of iterations used =            8  plain     mixing
     Exchange-correlation=  SLA  PW   PBE  PBE
                           (   1   4   3   4   0   0   0)

     celldm(1)=   9.000984  celldm(2)=   1.732119  celldm(3)=   1.627721
     celldm(4)=   0.000000  celldm(5)=   0.000000  celldm(6)=   0.000000

     crystal axes: (cart. coord. in units of alat)
               a(1) = (   1.000000   0.000000   0.000000 )  
               a(2) = (   0.000000   1.732119   0.000000 )  
               a(3) = (   0.000000   0.000000   1.627721 )  

     reciprocal axes: (cart. coord. in units 2 pi/alat)
               b(1) = (  1.000000  0.000000  0.000000 )  
               b(2) = (  0.000000  0.577328  0.000000 )  
               b(3) = (  0.000000  0.000000  0.614356 )  


     PseudoPot. # 1 for H  read from file:
     ./H.pbe-van_ak.UPF
     MD5 check sum: 077eb6d537518a38cb46c6de387227b7
     Pseudo is Ultrasoft, Zval =  1.0
     Generated by new atomic code, or converted to UPF format
     Using radial grid of  615 points,  1 beta functions with: 
                l(1) =   0
     Q(r) pseudized with  8 coefficients,  rinner =    0.800

     PseudoPot. # 2 for O  read from file:
     ./O.pbe-van_ak.UPF
     MD5 check sum: 78c19812648e8988a0fe644b0f25305e
     Pseudo is Ultrasoft, Zval =  6.0
     Generated by new atomic code, or converted to UPF format
     Using radial grid of  737 points,  4 beta functions with: 
                l(1) =   0
                l(2) =   0
                l(3) =   1
                l(4) =   1
     Q(r) pseudized with  8 coefficients,  rinner =    0.800   0.800   0.800


     atomic species   valence    mass     pseudopotential
     H                 1.00     1.00800     H ( 1.00)
     O                 6.00    16.00000     O ( 1.00)

      2 Sym. Ops. (no inversion) found



   Cartesian axes

     site n.     atom                  positions (alat units)
         1        O      tau(   1) = (   0.0000000   1.1515127   0.1027092  )
         2        O      tau(   2) = (   0.0000000   0.5806063   0.9165697  )
         3        O      tau(   3) = (   0.5000000   0.2854532   0.1027092  )
         4        O      tau(   4) = (   0.5000000   1.4466659   0.9165697  )
         5        O      tau(   5) = (   0.5000000   1.4298643   1.5250118  )
         6        O      tau(   6) = (   0.5000000   0.3022548   0.7111513  )
         7        O      tau(   7) = (   0.0000000   0.5638048   1.5250118  )
         8        O      tau(   8) = (   0.0000000   1.1683143   0.7111513  )
         9        H      tau(   9) = (   0.0000000   1.1494343   0.3195216  )
        10        H      tau(  10) = (   0.0000000   0.5826848   1.1333822  )
        11        H      tau(  11) = (   0.5000000   0.2833747   0.3195216  )
        12        H      tau(  12) = (   0.5000000   1.4487443   1.1333822  )
        13        H      tau(  13) = (   0.0000000   0.9289355   0.0297873  )
        14        H      tau(  14) = (   0.0000000   0.8031836   0.8436478  )
        15        H      tau(  15) = (   0.5000000   0.0628759   0.0297873  )
        16        H      tau(  16) = (   0.5000000   1.6692431   0.8436478  )
        17        H      tau(  17) = (   0.6766000   1.3420459   1.5979337  )
        18        H      tau(  18) = (   0.3234000   0.3900732   0.7840732  )
        19        H      tau(  19) = (   0.6766000   0.3900732   0.7840732  )
        20        H      tau(  20) = (   0.3234000   1.3420459   1.5979337  )
        21        H      tau(  21) = (   0.1766000   0.4759863   1.5979337  )
        22        H      tau(  22) = (   0.8234000   1.2561327   0.7840732  )
        23        H      tau(  23) = (   0.1766000   1.2561327   0.7840732  )
        24        H      tau(  24) = (   0.8234000   0.4759863   1.5979337  )

     number of k points=   460

     Number of k-points >= 100: set verbosity='high' to print them.

     Dense  grid:   237009 G-vectors     FFT dimensions: (  60,  96,  90)

     Estimated max dynamical RAM per process >      61.88 MB

     Estimated total dynamical RAM >       7.57 GB

     Initial potential from superposition of free atoms

     starting charge      63.9998, renormalised to      64.0000
     Starting wfcs are   48 randomized atomic wfcs

     total cpu time spent up to now is        5.6 secs

     per-process dynamical memory:    69.6 Mb

     Self-consistent Calculation

     iteration #  1     ecut=    90.00 Ry     beta= 0.70
     Davidson diagonalization with overlap
     ethr =  1.00E-02,  avg # of iterations =  2.0

     total cpu time spent up to now is       15.8 secs

     total energy              =    -274.76451641 Ry
     estimated scf accuracy    <       2.63113356 Ry

     iteration #  2     ecut=    90.00 Ry     beta= 0.70
     Davidson diagonalization with overlap
     ethr =  4.11E-03,  avg # of iterations =  3.0

     total cpu time spent up to now is       29.4 secs

     total energy              =    -275.56432697 Ry
     estimated scf accuracy    <       2.01332373 Ry

     iteration #  3     ecut=    90.00 Ry     beta= 0.70
     Davidson diagonalization with overlap
     ethr =  3.15E-03,  avg # of iterations =  2.0

     total cpu time spent up to now is       39.6 secs

     total energy              =    -275.83368625 Ry
     estimated scf accuracy    <       0.08541653 Ry

     iteration #  4     ecut=    90.00 Ry     beta= 0.70
     Davidson diagonalization with overlap
     ethr =  1.33E-04,  avg # of iterations =  4.0

     negative rho (up, down):  3.898E-08 0.000E+00

     total cpu time spent up to now is       54.9 secs

     total energy              =    -275.90142160 Ry
     estimated scf accuracy    <       0.09823930 Ry

     iteration #  5     ecut=    90.00 Ry     beta= 0.70
     Davidson diagonalization with overlap
     ethr =  1.33E-04,  avg # of iterations =  1.9

     negative rho (up, down):  1.477E-07 0.000E+00

     total cpu time spent up to now is       63.3 secs

     total energy              =    -275.90455321 Ry
     estimated scf accuracy    <       0.01701834 Ry

     iteration #  6     ecut=    90.00 Ry     beta= 0.70
     Davidson diagonalization with overlap
     ethr =  2.66E-05,  avg # of iterations =  2.0

     negative rho (up, down):  3.387E-07 0.000E+00

     total cpu time spent up to now is       72.6 secs

     total energy              =    -275.90332685 Ry
     estimated scf accuracy    <       0.00611806 Ry

     iteration #  7     ecut=    90.00 Ry     beta= 0.70
     Davidson diagonalization with overlap
     ethr =  9.56E-06,  avg # of iterations =  3.0

     negative rho (up, down):  3.747E-07 0.000E+00

     total cpu time spent up to now is       85.0 secs

     total energy              =    -275.90578805 Ry
     estimated scf accuracy    <       0.00019222 Ry

     iteration #  8     ecut=    90.00 Ry     beta= 0.70
     Davidson diagonalization with overlap
     ethr =  3.00E-07,  avg # of iterations =  4.0

     negative rho (up, down):  3.374E-07 0.000E+00

     total cpu time spent up to now is      100.2 secs

     total energy              =    -275.90561786 Ry
     estimated scf accuracy    <       0.00162187 Ry

     iteration #  9     ecut=    90.00 Ry     beta= 0.70
     Davidson diagonalization with overlap
     ethr =  3.00E-07,  avg # of iterations =  3.0

     negative rho (up, down):  2.789E-07 0.000E+00

     total cpu time spent up to now is      112.1 secs

     total energy              =    -275.90545371 Ry
     estimated scf accuracy    <       0.00053309 Ry

     iteration # 10     ecut=    90.00 Ry     beta= 0.70
     Davidson diagonalization with overlap
     ethr =  3.00E-07,  avg # of iterations =  3.0

     negative rho (up, down):  2.833E-07 0.000E+00

     total cpu time spent up to now is      125.7 secs

     total energy              =    -275.90556422 Ry
     estimated scf accuracy    <       0.00000246 Ry

     iteration # 11     ecut=    90.00 Ry     beta= 0.70
     Davidson diagonalization with overlap
     ethr =  3.84E-09,  avg # of iterations =  4.6

     negative rho (up, down):  2.856E-07 0.000E+00

     total cpu time spent up to now is      141.5 secs

     total energy              =    -275.90556762 Ry
     estimated scf accuracy    <       0.00000050 Ry

     iteration # 12     ecut=    90.00 Ry     beta= 0.70
     Davidson diagonalization with overlap
     ethr =  7.78E-10,  avg # of iterations =  3.0

     negative rho (up, down):  2.894E-07 0.000E+00

     total cpu time spent up to now is      153.3 secs

     total energy              =    -275.90556775 Ry
     estimated scf accuracy    <       0.00000019 Ry

     iteration # 13     ecut=    90.00 Ry     beta= 0.70
     Davidson diagonalization with overlap
     ethr =  2.93E-10,  avg # of iterations =  3.0

     negative rho (up, down):  2.892E-07 0.000E+00

     total cpu time spent up to now is      165.1 secs

     total energy              =    -275.90556781 Ry
     estimated scf accuracy    <       0.00000011 Ry

     iteration # 14     ecut=    90.00 Ry     beta= 0.70
     Davidson diagonalization with overlap
     ethr =  1.72E-10,  avg # of iterations =  1.5

     negative rho (up, down):  2.884E-07 0.000E+00

     total cpu time spent up to now is      173.3 secs

     total energy              =    -275.90556779 Ry
     estimated scf accuracy    <       0.00000014 Ry

     iteration # 15     ecut=    90.00 Ry     beta= 0.70
     Davidson diagonalization with overlap
     ethr =  1.72E-10,  avg # of iterations =  1.0

     negative rho (up, down):  2.872E-07 0.000E+00

     total cpu time spent up to now is      180.9 secs

     End of self-consistent calculation

     Number of k-points >= 100: set verbosity='high' to print the bands.

     highest occupied level (ev):    -3.9868

!    total energy              =    -275.90556773 Ry
     estimated scf accuracy    <       0.00000007 Ry

     The total energy is the sum of the following terms:
     one-electron contribution =    -251.45312501 Ry
     hartree contribution      =     144.86476067 Ry
     xc contribution           =     -66.97362293 Ry
     ewald contribution        =    -102.34358047 Ry

     convergence has been achieved in  15 iterations

     Forces acting on atoms (cartesian axes, Ry/au):

     atom    1 type  2   force =     0.00000000   -0.10093096    0.00271218
     atom    2 type  2   force =     0.00000000    0.10093060    0.00271277
     atom    3 type  2   force =     0.00000000   -0.10092980    0.00271219
     atom    4 type  2   force =     0.00000000    0.10092906    0.00271270
     atom    5 type  2   force =     0.00000000    0.03012625   -0.00950310
     atom    6 type  2   force =     0.00000000   -0.03012588   -0.00950304
     atom    7 type  2   force =     0.00000000    0.03012600   -0.00950255
     atom    8 type  2   force =     0.00000000   -0.03012562   -0.00950243
     atom    9 type  1   force =     0.00000000   -0.00681856   -0.05000977
     atom   10 type  1   force =     0.00000000    0.00681858   -0.05001026
     atom   11 type  1   force =     0.00000000   -0.00681843   -0.05000989
     atom   12 type  1   force =     0.00000000    0.00681843   -0.05001048
     atom   13 type  1   force =     0.00000000    0.10661239    0.04268262
     atom   14 type  1   force =     0.00000000   -0.10661233    0.04268254
     atom   15 type  1   force =     0.00000000    0.10661265    0.04268260
     atom   16 type  1   force =     0.00000000   -0.10661261    0.04268253
     atom   17 type  1   force =    -0.01972043   -0.01369189    0.00705890
     atom   18 type  1   force =     0.01972043    0.01369195    0.00705886
     atom   19 type  1   force =    -0.01972043    0.01369195    0.00705886
     atom   20 type  1   force =     0.01972043   -0.01369189    0.00705890
     atom   21 type  1   force =    -0.01972030   -0.01369193    0.00705899
     atom   22 type  1   force =     0.01972033    0.01369198    0.00705894
     atom   23 type  1   force =    -0.01972033    0.01369198    0.00705894
     atom   24 type  1   force =     0.01972030   -0.01369193    0.00705899

     Total force =     0.335738     Total SCF correction =     0.000177


     Computing stress (Cartesian axis) and pressure

          total   stress  (Ry/bohr**3)                   (kbar)     P=      -63.65
  -0.00027985   0.00000000   0.00000000          -41.17        0.00        0.00
   0.00000000  -0.00062628  -0.00000000            0.00      -92.13       -0.00
   0.00000000  -0.00000000  -0.00039200            0.00       -0.00      -57.66


     Writing all to output data dir ./iceIh/iceIh.save/ :
     XML data file, charge density, pseudopotentials, collected wavefunctions

     init_run     :      5.25s CPU      5.39s WALL (       1 calls)
     electrons    :    173.09s CPU    175.34s WALL (       1 calls)
     forces       :      0.72s CPU      0.73s WALL (       1 calls)
     stress       :     10.60s CPU     10.61s WALL (       1 calls)

     Called by init_run:
     wfcinit      :      4.57s CPU      4.66s WALL (       1 calls)
     potinit      :      0.02s CPU      0.04s WALL (       1 calls)
     hinit0       :      0.56s CPU      0.56s WALL (       1 calls)

     Called by electrons:
     c_bands      :    154.01s CPU    156.03s WALL (      15 calls)
     sum_band     :     18.74s CPU     18.91s WALL (      15 calls)
     v_of_rho     :      0.20s CPU      0.22s WALL (      16 calls)
     newd         :      0.04s CPU      0.04s WALL (      16 calls)
     mix_rho      :      0.05s CPU      0.05s WALL (      15 calls)

     Called by c_bands:
     init_us_2    :      2.55s CPU      2.63s WALL (    3795 calls)
     cegterg      :    148.80s CPU    149.95s WALL (    1725 calls)

     Called by *egterg:
     cdiaghg      :     11.03s CPU     11.06s WALL (    6485 calls)
     h_psi        :    114.65s CPU    115.75s WALL (    6600 calls)
     s_psi        :      4.91s CPU      4.93s WALL (    6600 calls)
     g_psi        :      0.45s CPU      0.45s WALL (    4760 calls)

     Called by h_psi:
     h_psi:calbec :      8.59s CPU      8.67s WALL (    6600 calls)
     vloc_psi     :     99.80s CPU    100.75s WALL (    6600 calls)
     add_vuspsi   :      5.22s CPU      5.27s WALL (    6600 calls)

     General routines
     calbec       :     10.94s CPU     11.04s WALL (    8900 calls)
     fft          :      0.65s CPU      0.65s WALL (     184 calls)
     ffts         :      0.01s CPU      0.01s WALL (      15 calls)
     fftw         :    102.70s CPU    103.61s WALL (  407802 calls)

     Parallel routines

     PWSCF        :   3m13.47s CPU   3m20.29s WALL


   This run was terminated on:   2:54: 2  22Mar2026            

=------------------------------------------------------------------------------=
   JOB DONE.
=------------------------------------------------------------------------------=
