
     Program PWSCF v.7.3.1 starts on 22Mar2026 at  3:12:49 

     This program is part of the open-source Quantum ESPRESSO suite
     for quantum simulation of materials; please cite
         "P. Giannozzi et al., J. Phys.:Condens. Matter 21 395502 (2009);
         "P. Giannozzi et al., J. Phys.:Condens. Matter 29 465901 (2017);
         "P. Giannozzi et al., J. Chem. Phys. 152 154105 (2020);
          URL http://www.quantum-espresso.org", 
     in publications or presentations arising from this work. More details at
     http://www.quantum-espresso.org/quote

     Parallel version (MPI), running on   128 processors

     MPI processes distributed on     1 nodes
     235784 MiB available memory on the printing compute node when the environment starts

     Waiting for input...
     Reading input from standard input

     Current dimensions of program PWSCF are:
     Max number of different atomic species (ntypx) = 10
     Max number of k-points (npk) =  40000
     Max angular momentum in pseudopotentials (lmaxx) =  4
     Found identity + ( -0.5000 -0.5000  0.0000) symmetry
     This is a supercell, fractional translations are disabled

     K-points division:     npool     =       4
     R & G space division:  proc/nbgrp/npool/nimage =      32
     Subspace diagonalization in iterative solution of the eigenvalue problem:
     a serial algorithm will be used


     Parallelization info
     --------------------
     sticks:   dense  smooth     PW     G-vecs:    dense   smooth      PW
     Min         126     126     34                 7454     7454    1070
     Max         127     127     35                 7457     7457    1075
     Sum        4053    4053   1113               238553   238553   34315

     Using Slab Decomposition



     bravais-lattice index     =            8
     lattice parameter (alat)  =       9.0180  a.u.
     unit-cell volume          =    2067.7036 (a.u.)^3
     number of atoms/cell      =           24
     number of atomic types    =            2
     number of electrons       =        64.00
     number of Kohn-Sham states=           32
     kinetic-energy cutoff     =      90.0000  Ry
     charge density cutoff     =     360.0000  Ry
     scf convergence threshold =      1.0E-07
     mixing beta               =       0.7000
     number of iterations used =            8  plain     mixing
     Exchange-correlation=  SLA  PW   PBE  PBE
                           (   1   4   3   4   0   0   0)

     celldm(1)=   9.017999  celldm(2)=   1.732119  celldm(3)=   1.627721
     celldm(4)=   0.000000  celldm(5)=   0.000000  celldm(6)=   0.000000

     crystal axes: (cart. coord. in units of alat)
               a(1) = (   1.000000   0.000000   0.000000 )  
               a(2) = (   0.000000   1.732119   0.000000 )  
               a(3) = (   0.000000   0.000000   1.627721 )  

     reciprocal axes: (cart. coord. in units 2 pi/alat)
               b(1) = (  1.000000  0.000000  0.000000 )  
               b(2) = (  0.000000  0.577328  0.000000 )  
               b(3) = (  0.000000  0.000000  0.614356 )  


     PseudoPot. # 1 for H  read from file:
     ./H.pbe-van_ak.UPF
     MD5 check sum: 077eb6d537518a38cb46c6de387227b7
     Pseudo is Ultrasoft, Zval =  1.0
     Generated by new atomic code, or converted to UPF format
     Using radial grid of  615 points,  1 beta functions with: 
                l(1) =   0
     Q(r) pseudized with  8 coefficients,  rinner =    0.800

     PseudoPot. # 2 for O  read from file:
     ./O.pbe-van_ak.UPF
     MD5 check sum: 78c19812648e8988a0fe644b0f25305e
     Pseudo is Ultrasoft, Zval =  6.0
     Generated by new atomic code, or converted to UPF format
     Using radial grid of  737 points,  4 beta functions with: 
                l(1) =   0
                l(2) =   0
                l(3) =   1
                l(4) =   1
     Q(r) pseudized with  8 coefficients,  rinner =    0.800   0.800   0.800


     atomic species   valence    mass     pseudopotential
     H                 1.00     1.00800     H ( 1.00)
     O                 6.00    16.00000     O ( 1.00)

      2 Sym. Ops. (no inversion) found



   Cartesian axes

     site n.     atom                  positions (alat units)
         1        O      tau(   1) = (   0.0000000   1.1515127   0.1027092  )
         2        O      tau(   2) = (   0.0000000   0.5806063   0.9165697  )
         3        O      tau(   3) = (   0.5000000   0.2854532   0.1027092  )
         4        O      tau(   4) = (   0.5000000   1.4466659   0.9165697  )
         5        O      tau(   5) = (   0.5000000   1.4298643   1.5250118  )
         6        O      tau(   6) = (   0.5000000   0.3022548   0.7111513  )
         7        O      tau(   7) = (   0.0000000   0.5638048   1.5250118  )
         8        O      tau(   8) = (   0.0000000   1.1683143   0.7111513  )
         9        H      tau(   9) = (   0.0000000   1.1494343   0.3195216  )
        10        H      tau(  10) = (   0.0000000   0.5826848   1.1333822  )
        11        H      tau(  11) = (   0.5000000   0.2833747   0.3195216  )
        12        H      tau(  12) = (   0.5000000   1.4487443   1.1333822  )
        13        H      tau(  13) = (   0.0000000   0.9289355   0.0297873  )
        14        H      tau(  14) = (   0.0000000   0.8031836   0.8436478  )
        15        H      tau(  15) = (   0.5000000   0.0628759   0.0297873  )
        16        H      tau(  16) = (   0.5000000   1.6692431   0.8436478  )
        17        H      tau(  17) = (   0.6766000   1.3420459   1.5979337  )
        18        H      tau(  18) = (   0.3234000   0.3900732   0.7840732  )
        19        H      tau(  19) = (   0.6766000   0.3900732   0.7840732  )
        20        H      tau(  20) = (   0.3234000   1.3420459   1.5979337  )
        21        H      tau(  21) = (   0.1766000   0.4759863   1.5979337  )
        22        H      tau(  22) = (   0.8234000   1.2561327   0.7840732  )
        23        H      tau(  23) = (   0.1766000   1.2561327   0.7840732  )
        24        H      tau(  24) = (   0.8234000   0.4759863   1.5979337  )

     number of k points=   460

     Number of k-points >= 100: set verbosity='high' to print them.

     Dense  grid:   238553 G-vectors     FFT dimensions: (  60,  96,  90)

     Estimated max dynamical RAM per process >      62.21 MB

     Estimated total dynamical RAM >       7.61 GB

     Initial potential from superposition of free atoms

     starting charge      63.9998, renormalised to      64.0000
     Starting wfcs are   48 randomized atomic wfcs

     total cpu time spent up to now is        5.8 secs

     per-process dynamical memory:    70.5 Mb

     Self-consistent Calculation

     iteration #  1     ecut=    90.00 Ry     beta= 0.70
     Davidson diagonalization with overlap
     ethr =  1.00E-02,  avg # of iterations =  2.0

     total cpu time spent up to now is       15.9 secs

     total energy              =    -274.75955143 Ry
     estimated scf accuracy    <       2.62700229 Ry

     iteration #  2     ecut=    90.00 Ry     beta= 0.70
     Davidson diagonalization with overlap
     ethr =  4.10E-03,  avg # of iterations =  3.0

     total cpu time spent up to now is       29.6 secs

     total energy              =    -275.55770656 Ry
     estimated scf accuracy    <       2.02484807 Ry

     iteration #  3     ecut=    90.00 Ry     beta= 0.70
     Davidson diagonalization with overlap
     ethr =  3.16E-03,  avg # of iterations =  2.0

     total cpu time spent up to now is       39.9 secs

     total energy              =    -275.82796441 Ry
     estimated scf accuracy    <       0.08642605 Ry

     iteration #  4     ecut=    90.00 Ry     beta= 0.70
     Davidson diagonalization with overlap
     ethr =  1.35E-04,  avg # of iterations =  4.0

     total cpu time spent up to now is       55.3 secs

     total energy              =    -275.89646695 Ry
     estimated scf accuracy    <       0.09892445 Ry

     iteration #  5     ecut=    90.00 Ry     beta= 0.70
     Davidson diagonalization with overlap
     ethr =  1.35E-04,  avg # of iterations =  1.9

     total cpu time spent up to now is       63.8 secs

     total energy              =    -275.89956479 Ry
     estimated scf accuracy    <       0.01720440 Ry

     iteration #  6     ecut=    90.00 Ry     beta= 0.70
     Davidson diagonalization with overlap
     ethr =  2.69E-05,  avg # of iterations =  2.0

     total cpu time spent up to now is       73.0 secs

     total energy              =    -275.89840208 Ry
     estimated scf accuracy    <       0.00608796 Ry

     iteration #  7     ecut=    90.00 Ry     beta= 0.70
     Davidson diagonalization with overlap
     ethr =  9.51E-06,  avg # of iterations =  3.0

     total cpu time spent up to now is       85.4 secs

     total energy              =    -275.90083429 Ry
     estimated scf accuracy    <       0.00018096 Ry

     iteration #  8     ecut=    90.00 Ry     beta= 0.70
     Davidson diagonalization with overlap
     ethr =  2.83E-07,  avg # of iterations =  4.2

     total cpu time spent up to now is      101.1 secs

     total energy              =    -275.90067043 Ry
     estimated scf accuracy    <       0.00165233 Ry

     iteration #  9     ecut=    90.00 Ry     beta= 0.70
     Davidson diagonalization with overlap
     ethr =  2.83E-07,  avg # of iterations =  3.0

     total cpu time spent up to now is      113.0 secs

     total energy              =    -275.90049433 Ry
     estimated scf accuracy    <       0.00054940 Ry

     iteration # 10     ecut=    90.00 Ry     beta= 0.70
     Davidson diagonalization with overlap
     ethr =  2.83E-07,  avg # of iterations =  3.0

     total cpu time spent up to now is      126.8 secs

     total energy              =    -275.90061292 Ry
     estimated scf accuracy    <       0.00000164 Ry

     iteration # 11     ecut=    90.00 Ry     beta= 0.70
     Davidson diagonalization with overlap
     ethr =  2.56E-09,  avg # of iterations =  5.0

     total cpu time spent up to now is      143.0 secs

     total energy              =    -275.90061635 Ry
     estimated scf accuracy    <       0.00000047 Ry

     iteration # 12     ecut=    90.00 Ry     beta= 0.70
     Davidson diagonalization with overlap
     ethr =  7.40E-10,  avg # of iterations =  2.5

     total cpu time spent up to now is      153.9 secs

     total energy              =    -275.90061648 Ry
     estimated scf accuracy    <       0.00000015 Ry

     iteration # 13     ecut=    90.00 Ry     beta= 0.70
     Davidson diagonalization with overlap
     ethr =  2.40E-10,  avg # of iterations =  3.4

     total cpu time spent up to now is      167.9 secs

     total energy              =    -275.90061650 Ry
     estimated scf accuracy    <       0.00000044 Ry

     iteration # 14     ecut=    90.00 Ry     beta= 0.70
     Davidson diagonalization with overlap
     ethr =  2.40E-10,  avg # of iterations =  1.4

     total cpu time spent up to now is      176.2 secs

     total energy              =    -275.90061644 Ry
     estimated scf accuracy    <       0.00000019 Ry

     iteration # 15     ecut=    90.00 Ry     beta= 0.70
     Davidson diagonalization with overlap
     ethr =  2.40E-10,  avg # of iterations =  2.0

     total cpu time spent up to now is      186.8 secs

     End of self-consistent calculation

     Number of k-points >= 100: set verbosity='high' to print the bands.

     highest occupied level (ev):    -4.0037

!    total energy              =    -275.90061647 Ry
     estimated scf accuracy    <          6.0E-09 Ry

     The total energy is the sum of the following terms:
     one-electron contribution =    -251.81773399 Ry
     hartree contribution      =     145.01070797 Ry
     xc contribution           =     -66.94311107 Ry
     ewald contribution        =    -102.15047937 Ry

     convergence has been achieved in  15 iterations

     Forces acting on atoms (cartesian axes, Ry/au):

     atom    1 type  2   force =     0.00000000   -0.10206268    0.00453516
     atom    2 type  2   force =     0.00000000    0.10206285    0.00453581
     atom    3 type  2   force =     0.00000000   -0.10206250    0.00453499
     atom    4 type  2   force =     0.00000000    0.10206224    0.00453544
     atom    5 type  2   force =     0.00000000    0.02775535   -0.00760177
     atom    6 type  2   force =     0.00000000   -0.02775528   -0.00760169
     atom    7 type  2   force =     0.00000000    0.02775474   -0.00760102
     atom    8 type  2   force =     0.00000000   -0.02775439   -0.00760054
     atom    9 type  1   force =     0.00000000   -0.00691179   -0.05242108
     atom   10 type  1   force =     0.00000000    0.00691177   -0.05242141
     atom   11 type  1   force =     0.00000000   -0.00691175   -0.05242133
     atom   12 type  1   force =     0.00000000    0.00691169   -0.05242193
     atom   13 type  1   force =     0.00000000    0.10792094    0.04327397
     atom   14 type  1   force =     0.00000000   -0.10792080    0.04327391
     atom   15 type  1   force =     0.00000000    0.10792122    0.04327402
     atom   16 type  1   force =     0.00000000   -0.10792134    0.04327399
     atom   17 type  1   force =    -0.02226764   -0.01251238    0.00610659
     atom   18 type  1   force =     0.02226774    0.01251228    0.00610650
     atom   19 type  1   force =    -0.02226774    0.01251228    0.00610650
     atom   20 type  1   force =     0.02226764   -0.01251238    0.00610659
     atom   21 type  1   force =    -0.02226738   -0.01251263    0.00610681
     atom   22 type  1   force =     0.02226737    0.01251261    0.00610682
     atom   23 type  1   force =    -0.02226737    0.01251261    0.00610682
     atom   24 type  1   force =     0.02226738   -0.01251263    0.00610681

     Total force =     0.340354     Total SCF correction =     0.000078


     Computing stress (Cartesian axis) and pressure

          total   stress  (Ry/bohr**3)                   (kbar)     P=      -65.54
  -0.00029665   0.00000000   0.00000000          -43.64        0.00        0.00
   0.00000000  -0.00063473  -0.00000000            0.00      -93.37       -0.00
   0.00000000  -0.00000000  -0.00040516            0.00       -0.00      -59.60


     Writing all to output data dir ./iceIh/iceIh.save/ :
     XML data file, charge density, pseudopotentials, collected wavefunctions

     init_run     :      5.33s CPU      5.41s WALL (       1 calls)
     electrons    :    178.62s CPU    181.09s WALL (       1 calls)
     forces       :      0.73s CPU      0.75s WALL (       1 calls)
     stress       :     10.65s CPU     10.67s WALL (       1 calls)

     Called by init_run:
     wfcinit      :      4.62s CPU      4.68s WALL (       1 calls)
     potinit      :      0.03s CPU      0.04s WALL (       1 calls)
     hinit0       :      0.57s CPU      0.57s WALL (       1 calls)

     Called by electrons:
     c_bands      :    159.63s CPU    161.84s WALL (      15 calls)
     sum_band     :     18.66s CPU     18.84s WALL (      15 calls)
     v_of_rho     :      0.21s CPU      0.22s WALL (      16 calls)
     newd         :      0.04s CPU      0.05s WALL (      16 calls)
     mix_rho      :      0.05s CPU      0.05s WALL (      15 calls)

     Called by c_bands:
     init_us_2    :      2.62s CPU      2.69s WALL (    3795 calls)
     cegterg      :    154.02s CPU    155.32s WALL (    1725 calls)

     Called by *egterg:
     cdiaghg      :     11.47s CPU     11.50s WALL (    6697 calls)
     h_psi        :    118.40s CPU    119.65s WALL (    6812 calls)
     s_psi        :      5.17s CPU      5.19s WALL (    6812 calls)
     g_psi        :      0.47s CPU      0.47s WALL (    4972 calls)

     Called by h_psi:
     h_psi:calbec :      8.93s CPU      9.00s WALL (    6812 calls)
     vloc_psi     :    102.94s CPU    104.06s WALL (    6812 calls)
     add_vuspsi   :      5.51s CPU      5.55s WALL (    6812 calls)

     General routines
     calbec       :     11.23s CPU     11.33s WALL (    9112 calls)
     fft          :      0.65s CPU      0.65s WALL (     184 calls)
     ffts         :      0.01s CPU      0.01s WALL (      15 calls)
     fftw         :    105.60s CPU    106.70s WALL (  418250 calls)

     Parallel routines

     PWSCF        :   3m18.33s CPU   3m25.24s WALL


   This run was terminated on:   3:16:14  22Mar2026            

=------------------------------------------------------------------------------=
   JOB DONE.
=------------------------------------------------------------------------------=
