
     Program PWSCF v.7.3.1 starts on  1Apr2026 at 19:30:26 

     This program is part of the open-source Quantum ESPRESSO suite
     for quantum simulation of materials; please cite
         "P. Giannozzi et al., J. Phys.:Condens. Matter 21 395502 (2009);
         "P. Giannozzi et al., J. Phys.:Condens. Matter 29 465901 (2017);
         "P. Giannozzi et al., J. Chem. Phys. 152 154105 (2020);
          URL http://www.quantum-espresso.org", 
     in publications or presentations arising from this work. More details at
     http://www.quantum-espresso.org/quote

     Parallel version (MPI), running on   128 processors

     MPI processes distributed on     1 nodes
     235564 MiB available memory on the printing compute node when the environment starts

     Waiting for input...
     Reading input from standard input

     Current dimensions of program PWSCF are:
     Max number of different atomic species (ntypx) = 10
     Max number of k-points (npk) =  40000
     Max angular momentum in pseudopotentials (lmaxx) =  4
     Found identity + ( -0.5000 -0.5000  0.0000) symmetry
     This is a supercell, fractional translations are disabled

     K-points division:     npool     =       4
     R & G space division:  proc/nbgrp/npool/nimage =      32
     Subspace diagonalization in iterative solution of the eigenvalue problem:
     a serial algorithm will be used


     Parallelization info
     --------------------
     sticks:   dense  smooth     PW     G-vecs:    dense   smooth      PW
     Min         127     127     34                 7577     7577    1082
     Max         128     128     35                 7584     7584    1089
     Sum        4081    4081   1117               242557   242557   34763

     Using Slab Decomposition



     bravais-lattice index     =            8
     lattice parameter (alat)  =       9.0690  a.u.
     unit-cell volume          =    2103.0147 (a.u.)^3
     number of atoms/cell      =           24
     number of atomic types    =            2
     number of electrons       =        64.00
     number of Kohn-Sham states=           32
     kinetic-energy cutoff     =      90.0000  Ry
     charge density cutoff     =     360.0000  Ry
     scf convergence threshold =      1.0E-07
     mixing beta               =       0.7000
     number of iterations used =            8  plain     mixing
     energy convergence thresh.=      1.0E-04
     force convergence thresh. =      1.0E-03
     Exchange-correlation=  SLA  PW   PBE  PBE
                           (   1   4   3   4   0   0   0)
     nstep                     =           50


     celldm(1)=   9.069044  celldm(2)=   1.732119  celldm(3)=   1.627721
     celldm(4)=   0.000000  celldm(5)=   0.000000  celldm(6)=   0.000000

     crystal axes: (cart. coord. in units of alat)
               a(1) = (   1.000000   0.000000   0.000000 )  
               a(2) = (   0.000000   1.732119   0.000000 )  
               a(3) = (   0.000000   0.000000   1.627721 )  

     reciprocal axes: (cart. coord. in units 2 pi/alat)
               b(1) = (  1.000000  0.000000  0.000000 )  
               b(2) = (  0.000000  0.577328  0.000000 )  
               b(3) = (  0.000000  0.000000  0.614356 )  


     PseudoPot. # 1 for H  read from file:
     ./H.pbe-van_ak.UPF
     MD5 check sum: 077eb6d537518a38cb46c6de387227b7
     Pseudo is Ultrasoft, Zval =  1.0
     Generated by new atomic code, or converted to UPF format
     Using radial grid of  615 points,  1 beta functions with: 
                l(1) =   0
     Q(r) pseudized with  8 coefficients,  rinner =    0.800

     PseudoPot. # 2 for O  read from file:
     ./O.pbe-van_ak.UPF
     MD5 check sum: 78c19812648e8988a0fe644b0f25305e
     Pseudo is Ultrasoft, Zval =  6.0
     Generated by new atomic code, or converted to UPF format
     Using radial grid of  737 points,  4 beta functions with: 
                l(1) =   0
                l(2) =   0
                l(3) =   1
                l(4) =   1
     Q(r) pseudized with  8 coefficients,  rinner =    0.800   0.800   0.800


     atomic species   valence    mass     pseudopotential
     H                 1.00     1.00800     H ( 1.00)
     O                 6.00    16.00000     O ( 1.00)

      2 Sym. Ops. (no inversion) found



   Cartesian axes

     site n.     atom                  positions (alat units)
         1        O      tau(   1) = (   0.0000000   1.1515127   0.1027092  )
         2        O      tau(   2) = (   0.0000000   0.5806063   0.9165697  )
         3        O      tau(   3) = (   0.5000000   0.2854532   0.1027092  )
         4        O      tau(   4) = (   0.5000000   1.4466659   0.9165697  )
         5        O      tau(   5) = (   0.5000000   1.4298643   1.5250118  )
         6        O      tau(   6) = (   0.5000000   0.3022548   0.7111513  )
         7        O      tau(   7) = (   0.0000000   0.5638048   1.5250118  )
         8        O      tau(   8) = (   0.0000000   1.1683143   0.7111513  )
         9        H      tau(   9) = (   0.0000000   1.1494343   0.3195216  )
        10        H      tau(  10) = (   0.0000000   0.5826848   1.1333822  )
        11        H      tau(  11) = (   0.5000000   0.2833747   0.3195216  )
        12        H      tau(  12) = (   0.5000000   1.4487443   1.1333822  )
        13        H      tau(  13) = (   0.0000000   0.9289355   0.0297873  )
        14        H      tau(  14) = (   0.0000000   0.8031836   0.8436478  )
        15        H      tau(  15) = (   0.5000000   0.0628759   0.0297873  )
        16        H      tau(  16) = (   0.5000000   1.6692431   0.8436478  )
        17        H      tau(  17) = (   0.6766000   1.3420459   1.5979337  )
        18        H      tau(  18) = (   0.3234000   0.3900732   0.7840732  )
        19        H      tau(  19) = (   0.6766000   0.3900732   0.7840732  )
        20        H      tau(  20) = (   0.3234000   1.3420459   1.5979337  )
        21        H      tau(  21) = (   0.1766000   0.4759863   1.5979337  )
        22        H      tau(  22) = (   0.8234000   1.2561327   0.7840732  )
        23        H      tau(  23) = (   0.1766000   1.2561327   0.7840732  )
        24        H      tau(  24) = (   0.8234000   0.4759863   1.5979337  )

     number of k points=   460

     Number of k-points >= 100: set verbosity='high' to print them.

     Dense  grid:   242557 G-vectors     FFT dimensions: (  60,  96,  90)

     Estimated max dynamical RAM per process >      63.24 MB

     Estimated total dynamical RAM >       7.73 GB

     Initial potential from superposition of free atoms

     starting charge      63.9998, renormalised to      64.0000
     Starting wfcs are   48 randomized atomic wfcs

     total cpu time spent up to now is        5.8 secs

     per-process dynamical memory:    71.4 Mb

     Self-consistent Calculation

     iteration #  1     ecut=    90.00 Ry     beta= 0.70
     Davidson diagonalization with overlap
     ethr =  1.00E-02,  avg # of iterations =  2.0

     total cpu time spent up to now is       16.1 secs

     total energy              =    -274.74358557 Ry
     estimated scf accuracy    <       2.61521408 Ry

     iteration #  2     ecut=    90.00 Ry     beta= 0.70
     Davidson diagonalization with overlap
     ethr =  4.09E-03,  avg # of iterations =  3.0

     total cpu time spent up to now is       29.9 secs

     total energy              =    -275.53679486 Ry
     estimated scf accuracy    <       2.06006654 Ry

     iteration #  3     ecut=    90.00 Ry     beta= 0.70
     Davidson diagonalization with overlap
     ethr =  3.22E-03,  avg # of iterations =  2.0

     total cpu time spent up to now is       40.3 secs

     total energy              =    -275.80982287 Ry
     estimated scf accuracy    <       0.08952119 Ry

     iteration #  4     ecut=    90.00 Ry     beta= 0.70
     Davidson diagonalization with overlap
     ethr =  1.40E-04,  avg # of iterations =  4.0

     negative rho (up, down):  4.350E-07 0.000E+00

     total cpu time spent up to now is       55.8 secs

     total energy              =    -275.88068557 Ry
     estimated scf accuracy    <       0.10100739 Ry

     iteration #  5     ecut=    90.00 Ry     beta= 0.70
     Davidson diagonalization with overlap
     ethr =  1.40E-04,  avg # of iterations =  1.9

     negative rho (up, down):  6.730E-07 0.000E+00

     total cpu time spent up to now is       64.2 secs

     total energy              =    -275.88367565 Ry
     estimated scf accuracy    <       0.01776534 Ry

     iteration #  6     ecut=    90.00 Ry     beta= 0.70
     Davidson diagonalization with overlap
     ethr =  2.78E-05,  avg # of iterations =  2.0

     negative rho (up, down):  1.048E-06 0.000E+00

     total cpu time spent up to now is       73.6 secs

     total energy              =    -275.88270179 Ry
     estimated scf accuracy    <       0.00599364 Ry

     iteration #  7     ecut=    90.00 Ry     beta= 0.70
     Davidson diagonalization with overlap
     ethr =  9.37E-06,  avg # of iterations =  3.0

     negative rho (up, down):  1.144E-06 0.000E+00

     total cpu time spent up to now is       85.8 secs

     total energy              =    -275.88501680 Ry
     estimated scf accuracy    <       0.00013107 Ry

     iteration #  8     ecut=    90.00 Ry     beta= 0.70
     Davidson diagonalization with overlap
     ethr =  2.05E-07,  avg # of iterations =  6.0

     negative rho (up, down):  1.062E-06 0.000E+00

     total cpu time spent up to now is      104.5 secs

     total energy              =    -275.88492430 Ry
     estimated scf accuracy    <       0.00203557 Ry

     iteration #  9     ecut=    90.00 Ry     beta= 0.70
     Davidson diagonalization with overlap
     ethr =  2.05E-07,  avg # of iterations =  3.3

     negative rho (up, down):  9.219E-07 0.000E+00

     total cpu time spent up to now is      117.8 secs

     total energy              =    -275.88467588 Ry
     estimated scf accuracy    <       0.00067915 Ry

     iteration # 10     ecut=    90.00 Ry     beta= 0.70
     Davidson diagonalization with overlap
     ethr =  2.05E-07,  avg # of iterations =  3.9

     negative rho (up, down):  9.480E-07 0.000E+00

     total cpu time spent up to now is      132.3 secs

     total energy              =    -275.88483281 Ry
     estimated scf accuracy    <       0.00000366 Ry

     iteration # 11     ecut=    90.00 Ry     beta= 0.70
     Davidson diagonalization with overlap
     ethr =  5.71E-09,  avg # of iterations =  3.0

     negative rho (up, down):  9.492E-07 0.000E+00

     total cpu time spent up to now is      144.4 secs

     total energy              =    -275.88483540 Ry
     estimated scf accuracy    <       0.00000081 Ry

     iteration # 12     ecut=    90.00 Ry     beta= 0.70
     Davidson diagonalization with overlap
     ethr =  1.26E-09,  avg # of iterations =  2.7

     negative rho (up, down):  9.551E-07 0.000E+00

     total cpu time spent up to now is      155.8 secs

     total energy              =    -275.88483559 Ry
     estimated scf accuracy    <       0.00000010 Ry

     iteration # 13     ecut=    90.00 Ry     beta= 0.70
     Davidson diagonalization with overlap
     ethr =  1.57E-10,  avg # of iterations =  2.1

     negative rho (up, down):  9.527E-07 0.000E+00

     total cpu time spent up to now is      166.8 secs

     End of self-consistent calculation

     Number of k-points >= 100: set verbosity='high' to print the bands.

     highest occupied level (ev):    -4.0521

!    total energy              =    -275.88483559 Ry
     estimated scf accuracy    <       0.00000005 Ry

     The total energy is the sum of the following terms:
     one-electron contribution =    -252.89586902 Ry
     hartree contribution      =     145.43736598 Ry
     xc contribution           =     -66.85080897 Ry
     ewald contribution        =    -101.57552358 Ry

     convergence has been achieved in  13 iterations

     Forces acting on atoms (cartesian axes, Ry/au):

     atom    1 type  2   force =     0.00000000   -0.10557491    0.00994746
     atom    2 type  2   force =     0.00000000    0.10557481    0.00994785
     atom    3 type  2   force =     0.00000000   -0.10557387    0.00994617
     atom    4 type  2   force =     0.00000000    0.10557319    0.00994555
     atom    5 type  2   force =     0.00000000    0.02122234   -0.00219750
     atom    6 type  2   force =     0.00000000   -0.02122236   -0.00219681
     atom    7 type  2   force =     0.00000000    0.02122201   -0.00219786
     atom    8 type  2   force =     0.00000000   -0.02122153   -0.00219736
     atom    9 type  1   force =     0.00000000   -0.00723641   -0.05942086
     atom   10 type  1   force =     0.00000000    0.00723648   -0.05942141
     atom   11 type  1   force =     0.00000000   -0.00723637   -0.05942066
     atom   12 type  1   force =     0.00000000    0.00723646   -0.05942111
     atom   13 type  1   force =     0.00000000    0.11169777    0.04495661
     atom   14 type  1   force =     0.00000000   -0.11169750    0.04495648
     atom   15 type  1   force =     0.00000000    0.11169711    0.04495639
     atom   16 type  1   force =     0.00000000   -0.11169663    0.04495620
     atom   17 type  1   force =    -0.02970310   -0.00911004    0.00335789
     atom   18 type  1   force =     0.02970320    0.00911007    0.00335778
     atom   19 type  1   force =    -0.02970320    0.00911007    0.00335778
     atom   20 type  1   force =     0.02970310   -0.00911004    0.00335789
     atom   21 type  1   force =    -0.02970382   -0.00910970    0.00335754
     atom   22 type  1   force =     0.02970449    0.00910939    0.00335722
     atom   23 type  1   force =    -0.02970449    0.00910939    0.00335722
     atom   24 type  1   force =     0.02970382   -0.00910970    0.00335754

     Total force =     0.356279     Total SCF correction =     0.000136


     Computing stress (Cartesian axis) and pressure

          total   stress  (Ry/bohr**3)                   (kbar)     P=      -71.48
  -0.00034865   0.00000000   0.00000000          -51.29        0.00        0.00
   0.00000000  -0.00066248   0.00000000            0.00      -97.45        0.00
   0.00000000   0.00000000  -0.00044656            0.00        0.00      -65.69


     BFGS Geometry Optimization
     Energy error            =      0.0E+00 Ry
     Gradient error          =      1.1E-01 Ry/Bohr

     number of scf cycles    =   1
     number of bfgs steps    =   0

     energy             new  =    -275.8848355856 Ry

     new trust radius        =       0.1204055207 bohr
     new conv_thr            =       0.0000001000 Ry


ATOMIC_POSITIONS (crystal)
O                0.0000000000        0.6580791806        0.0637738645
O                0.0000000000        0.3419208128        0.5637738683
O                0.5000000000        0.1580792465        0.0637737772
O                0.5000000000        0.8419207101        0.5637737122
O                0.5000000000        0.8268510069        0.9367511566
O                0.5000000000        0.1731489917        0.4367511733
O                0.0000000000        0.3268509856        0.9367511325
O                0.0000000000        0.6731490446        0.4367511361
H                0.0000000000        0.6631393641        0.1922747078
H                0.0000000000        0.3368606403        0.6922747007
H                0.5000000000        0.1631393669        0.1922747212
H                0.5000000000        0.8368606388        0.6922747204
H                0.0000000000        0.5434105876        0.0213454550
H                0.0000000000        0.4565894298        0.5213454424
H                0.5000000000        0.0434105451        0.0213454399
H                0.5000000000        0.9565894849        0.5213454236
H                0.6733247605        0.7742200657        0.9819274733
H                0.3266752505        0.2257799359        0.4819274663
H                0.6733247495        0.2257799359        0.4819274663
H                0.3266752395        0.7742200657        0.9819274733
H                0.1733246811        0.2742200876        0.9819274495
H                0.8266753925        0.7257798926        0.4819274279
H                0.1733246075        0.7257798926        0.4819274279
H                0.8266753189        0.2742200876        0.9819274495



     Writing config-only to output data dir ./iceIh/iceIh.save/ :
     XML data file
     NEW-OLD atomic charge density approx. for the potential

     negative rho (up, down):  1.242E-06 0.000E+00

     total cpu time spent up to now is      178.8 secs

     per-process dynamical memory:    76.8 Mb

     Self-consistent Calculation

     iteration #  1     ecut=    90.00 Ry     beta= 0.70
     Davidson diagonalization with overlap
     ethr =  1.00E-06,  avg # of iterations =  9.0

     negative rho (up, down):  1.668E-06 0.000E+00

     total cpu time spent up to now is      208.0 secs

     total energy              =    -275.95620561 Ry
     estimated scf accuracy    <       0.02991723 Ry

     iteration #  2     ecut=    90.00 Ry     beta= 0.70
     Davidson diagonalization with overlap
     ethr =  4.67E-05,  avg # of iterations =  3.5

     negative rho (up, down):  1.519E-06 0.000E+00

     total cpu time spent up to now is      220.4 secs

     total energy              =    -275.96302914 Ry
     estimated scf accuracy    <       0.01934571 Ry

     iteration #  3     ecut=    90.00 Ry     beta= 0.70
     Davidson diagonalization with overlap
     ethr =  3.02E-05,  avg # of iterations =  2.5

     negative rho (up, down):  1.762E-06 0.000E+00

     total cpu time spent up to now is      231.2 secs

     total energy              =    -275.96696564 Ry
     estimated scf accuracy    <       0.00028689 Ry

     iteration #  4     ecut=    90.00 Ry     beta= 0.70
     Davidson diagonalization with overlap
     ethr =  4.48E-07,  avg # of iterations =  4.8

     negative rho (up, down):  1.925E-06 0.000E+00

     total cpu time spent up to now is      247.1 secs

     total energy              =    -275.96717813 Ry
     estimated scf accuracy    <       0.00039276 Ry

     iteration #  5     ecut=    90.00 Ry     beta= 0.70
     Davidson diagonalization with overlap
     ethr =  4.48E-07,  avg # of iterations =  2.7

     negative rho (up, down):  1.985E-06 0.000E+00

     total cpu time spent up to now is      258.2 secs

     total energy              =    -275.96723220 Ry
     estimated scf accuracy    <       0.00001224 Ry

     iteration #  6     ecut=    90.00 Ry     beta= 0.70
     Davidson diagonalization with overlap
     ethr =  1.91E-08,  avg # of iterations =  4.7

     negative rho (up, down):  1.978E-06 0.000E+00

     total cpu time spent up to now is      274.1 secs

     total energy              =    -275.96724007 Ry
     estimated scf accuracy    <       0.00002177 Ry

     iteration #  7     ecut=    90.00 Ry     beta= 0.70
     Davidson diagonalization with overlap
     ethr =  1.91E-08,  avg # of iterations =  2.5

     negative rho (up, down):  1.968E-06 0.000E+00

     total cpu time spent up to now is      284.7 secs

     total energy              =    -275.96724104 Ry
     estimated scf accuracy    <       0.00000237 Ry

     iteration #  8     ecut=    90.00 Ry     beta= 0.70
     Davidson diagonalization with overlap
     ethr =  3.70E-09,  avg # of iterations =  3.5

     negative rho (up, down):  1.966E-06 0.000E+00

     total cpu time spent up to now is      297.5 secs

     total energy              =    -275.96724211 Ry
     estimated scf accuracy    <       0.00000031 Ry

     iteration #  9     ecut=    90.00 Ry     beta= 0.70
     Davidson diagonalization with overlap
     ethr =  4.79E-10,  avg # of iterations =  2.0

     negative rho (up, down):  1.967E-06 0.000E+00

     total cpu time spent up to now is      307.0 secs

     total energy              =    -275.96724207 Ry
     estimated scf accuracy    <       0.00000022 Ry

     iteration # 10     ecut=    90.00 Ry     beta= 0.70
     Davidson diagonalization with overlap
     ethr =  3.44E-10,  avg # of iterations =  2.0

     negative rho (up, down):  1.969E-06 0.000E+00

     total cpu time spent up to now is      316.0 secs

     End of self-consistent calculation

     Number of k-points >= 100: set verbosity='high' to print the bands.

     highest occupied level (ev):    -4.2283

!    total energy              =    -275.96724205 Ry
     estimated scf accuracy    <       0.00000005 Ry

     The total energy is the sum of the following terms:
     one-electron contribution =    -257.48742951 Ry
     hartree contribution      =     147.56461821 Ry
     xc contribution           =     -67.29744368 Ry
     ewald contribution        =     -98.74698707 Ry

     convergence has been achieved in  10 iterations

     Forces acting on atoms (cartesian axes, Ry/au):

     atom    1 type  2   force =     0.00000000    0.00145486   -0.00357728
     atom    2 type  2   force =     0.00000000   -0.00145451   -0.00357753
     atom    3 type  2   force =     0.00000000    0.00145426   -0.00357581
     atom    4 type  2   force =     0.00000000   -0.00145355   -0.00357520
     atom    5 type  2   force =     0.00000000    0.00931739   -0.00144602
     atom    6 type  2   force =     0.00000000   -0.00931754   -0.00144614
     atom    7 type  2   force =     0.00000000    0.00931729   -0.00144591
     atom    8 type  2   force =     0.00000000   -0.00931804   -0.00144651
     atom    9 type  1   force =     0.00000000   -0.01571802   -0.01754601
     atom   10 type  1   force =     0.00000000    0.01571802   -0.01754577
     atom   11 type  1   force =     0.00000000   -0.01571782   -0.01754671
     atom   12 type  1   force =     0.00000000    0.01571774   -0.01754750
     atom   13 type  1   force =     0.00000000    0.01872261    0.02114657
     atom   14 type  1   force =     0.00000000   -0.01872283    0.02114666
     atom   15 type  1   force =     0.00000000    0.01872313    0.02114649
     atom   16 type  1   force =     0.00000000   -0.01872382    0.02114660
     atom   17 type  1   force =    -0.02527945   -0.00661762    0.00071100
     atom   18 type  1   force =     0.02527935    0.00661767    0.00071107
     atom   19 type  1   force =    -0.02527935    0.00661767    0.00071107
     atom   20 type  1   force =     0.02527945   -0.00661762    0.00071100
     atom   21 type  1   force =    -0.02527857   -0.00661810    0.00071135
     atom   22 type  1   force =     0.02527792    0.00661847    0.00071163
     atom   23 type  1   force =    -0.02527792    0.00661847    0.00071163
     atom   24 type  1   force =     0.02527857   -0.00661810    0.00071135

     Total force =     0.106266     Total SCF correction =     0.000163


     Computing stress (Cartesian axis) and pressure

          total   stress  (Ry/bohr**3)                   (kbar)     P=      -36.79
  -0.00029911   0.00000000   0.00000000          -44.00        0.00        0.00
   0.00000000  -0.00021620   0.00000000            0.00      -31.80        0.00
   0.00000000   0.00000000  -0.00023504            0.00        0.00      -34.58

     Energy error            =      8.2E-02 Ry
     Gradient error          =      2.5E-02 Ry/Bohr

     number of scf cycles    =   2
     number of bfgs steps    =   1

     energy             old  =    -275.8848355856 Ry
     energy             new  =    -275.9672420464 Ry

     CASE: energy            _new < energy            _old

     new trust radius        =       0.0437543815 bohr
     new conv_thr            =       0.0000000253 Ry


ATOMIC_POSITIONS (crystal)
O                0.0000000000        0.6576363238        0.0635326907
O                0.0000000000        0.3423636967        0.5635326757
O                0.5000000000        0.1576363483        0.0635327180
O                0.5000000000        0.8423636599        0.5635327002
O                0.5000000000        0.8276896766        0.9366187975
O                0.5000000000        0.1723103097        0.4366188074
O                0.0000000000        0.3276896461        0.9366187804
O                0.0000000000        0.6723103278        0.4366187369
H                0.0000000000        0.6618750925        0.1904849706
H                0.0000000000        0.3381249120        0.6904849805
H                0.5000000000        0.1618751113        0.1904849273
H                0.5000000000        0.8381248884        0.6904848582
H                0.0000000000        0.5454597219        0.0233529692
H                0.0000000000        0.4545402796        0.5233529634
H                0.5000000000        0.0454597167        0.0233529468
H                0.5000000000        0.9545402621        0.5233529382
H                0.6696378836        0.7736558288        0.9820053250
H                0.3303621158        0.2263441772        0.4820053224
H                0.6696378842        0.2263441772        0.4820053224
H                0.3303621164        0.7736558288        0.9820053250
H                0.1696379161        0.2736558147        0.9820053277
H                0.8303620754        0.7263441925        0.4820053273
H                0.1696379246        0.7263441925        0.4820053273
H                0.8303620839        0.2736558147        0.9820053277



     Writing config-only to output data dir ./iceIh/iceIh.save/ :
     XML data file
     NEW-OLD atomic charge density approx. for the potential

     negative rho (up, down):  2.102E-06 0.000E+00

     total cpu time spent up to now is      329.0 secs

     per-process dynamical memory:    79.0 Mb

     Self-consistent Calculation

     iteration #  1     ecut=    90.00 Ry     beta= 0.70
     Davidson diagonalization with overlap
     ethr =  1.00E-06,  avg # of iterations =  6.0

     negative rho (up, down):  2.474E-06 0.000E+00

     total cpu time spent up to now is      348.2 secs

     total energy              =    -275.97603214 Ry
     estimated scf accuracy    <       0.00210521 Ry

     iteration #  2     ecut=    90.00 Ry     beta= 0.70
     Davidson diagonalization with overlap
     ethr =  3.29E-06,  avg # of iterations =  3.0

     negative rho (up, down):  2.343E-06 0.000E+00

     total cpu time spent up to now is      361.1 secs

     total energy              =    -275.97653460 Ry
     estimated scf accuracy    <       0.00107102 Ry

     iteration #  3     ecut=    90.00 Ry     beta= 0.70
     Davidson diagonalization with overlap
     ethr =  1.67E-06,  avg # of iterations =  2.0

     negative rho (up, down):  2.260E-06 0.000E+00

     total cpu time spent up to now is      371.2 secs

     total energy              =    -275.97673086 Ry
     estimated scf accuracy    <       0.00002974 Ry

     iteration #  4     ecut=    90.00 Ry     beta= 0.70
     Davidson diagonalization with overlap
     ethr =  4.65E-08,  avg # of iterations =  4.1

     negative rho (up, down):  2.290E-06 0.000E+00

     total cpu time spent up to now is      386.7 secs

     total energy              =    -275.97675067 Ry
     estimated scf accuracy    <       0.00003467 Ry

     iteration #  5     ecut=    90.00 Ry     beta= 0.70
     Davidson diagonalization with overlap
     ethr =  4.65E-08,  avg # of iterations =  2.0

     negative rho (up, down):  2.316E-06 0.000E+00

     total cpu time spent up to now is      396.8 secs

     total energy              =    -275.97675127 Ry
     estimated scf accuracy    <       0.00000521 Ry

     iteration #  6     ecut=    90.00 Ry     beta= 0.70
     Davidson diagonalization with overlap
     ethr =  8.15E-09,  avg # of iterations =  3.2

     negative rho (up, down):  2.310E-06 0.000E+00

     total cpu time spent up to now is      410.0 secs

     total energy              =    -275.97675349 Ry
     estimated scf accuracy    <       0.00000111 Ry

     iteration #  7     ecut=    90.00 Ry     beta= 0.70
     Davidson diagonalization with overlap
     ethr =  1.74E-09,  avg # of iterations =  2.0

     negative rho (up, down):  2.303E-06 0.000E+00

     total cpu time spent up to now is      419.5 secs

     total energy              =    -275.97675348 Ry
     estimated scf accuracy    <       0.00000021 Ry

     iteration #  8     ecut=    90.00 Ry     beta= 0.70
     Davidson diagonalization with overlap
     ethr =  3.28E-10,  avg # of iterations =  2.9

     negative rho (up, down):  2.303E-06 0.000E+00

     total cpu time spent up to now is      431.5 secs

     End of self-consistent calculation

     Number of k-points >= 100: set verbosity='high' to print the bands.

     highest occupied level (ev):    -4.2842

!    total energy              =    -275.97675355 Ry
     estimated scf accuracy    <          2.6E-09 Ry

     The total energy is the sum of the following terms:
     one-electron contribution =    -259.34966973 Ry
     hartree contribution      =     148.40978578 Ry
     xc contribution           =     -67.47368529 Ry
     ewald contribution        =     -97.56318432 Ry

     convergence has been achieved in   8 iterations

     Forces acting on atoms (cartesian axes, Ry/au):

     atom    1 type  2   force =     0.00000000    0.03229100   -0.00508643
     atom    2 type  2   force =     0.00000000   -0.03229134   -0.00508599
     atom    3 type  2   force =     0.00000000    0.03229041   -0.00508751
     atom    4 type  2   force =     0.00000000   -0.03229081   -0.00508798
     atom    5 type  2   force =     0.00000000    0.01185543   -0.00465458
     atom    6 type  2   force =     0.00000000   -0.01185534   -0.00465453
     atom    7 type  2   force =     0.00000000    0.01185529   -0.00465452
     atom    8 type  2   force =     0.00000000   -0.01185480   -0.00465410
     atom    9 type  1   force =     0.00000000   -0.01159930    0.00005703
     atom   10 type  1   force =     0.00000000    0.01159933    0.00005669
     atom   11 type  1   force =     0.00000000   -0.01159932    0.00005787
     atom   12 type  1   force =     0.00000000    0.01159929    0.00005849
     atom   13 type  1   force =     0.00000000   -0.01603669    0.00564799
     atom   14 type  1   force =     0.00000000    0.01603698    0.00564791
     atom   15 type  1   force =     0.00000000   -0.01603617    0.00564821
     atom   16 type  1   force =     0.00000000    0.01603657    0.00564807
     atom   17 type  1   force =    -0.01126068   -0.00790389    0.00201801
     atom   18 type  1   force =     0.01126072    0.00790386    0.00201798
     atom   19 type  1   force =    -0.01126072    0.00790386    0.00201798
     atom   20 type  1   force =     0.01126068   -0.00790389    0.00201801
     atom   21 type  1   force =    -0.01126085   -0.00790384    0.00201795
     atom   22 type  1   force =     0.01126115    0.00790360    0.00201775
     atom   23 type  1   force =    -0.01126115    0.00790360    0.00201775
     atom   24 type  1   force =     0.01126085   -0.00790384    0.00201795

     Total force =     0.090357     Total SCF correction =     0.000027


     Computing stress (Cartesian axis) and pressure

          total   stress  (Ry/bohr**3)                   (kbar)     P=      -20.26
  -0.00020793   0.00000000   0.00000000          -30.59        0.00        0.00
   0.00000000  -0.00006808  -0.00000000            0.00      -10.01       -0.00
   0.00000000  -0.00000000  -0.00013717            0.00       -0.00      -20.18

     Energy error            =      9.5E-03 Ry
     Gradient error          =      3.2E-02 Ry/Bohr

     number of scf cycles    =   3
     number of bfgs steps    =   2

     energy             old  =    -275.9672420464 Ry
     energy             new  =    -275.9767535513 Ry

     CASE: energy            _new < energy            _old

     new trust radius        =       0.0347252141 bohr
     new conv_thr            =       0.0000000323 Ry


ATOMIC_POSITIONS (crystal)
O                0.0000000000        0.6594618031        0.0630483124
O                0.0000000000        0.3405382028        0.5630483276
O                0.5000000000        0.1594617673        0.0630482956
O                0.5000000000        0.8405382305        0.5630482570
O                0.5000000000        0.8291030305        0.9361592458
O                0.5000000000        0.1708969570        0.4361592598
O                0.0000000000        0.3291029839        0.9361592350
O                0.0000000000        0.6708970054        0.4361592069
H                0.0000000000        0.6603525510        0.1893693093
H                0.0000000000        0.3396474561        0.6893692967
H                0.5000000000        0.1603525758        0.1893693112
H                0.5000000000        0.8396474196        0.6893692601
H                0.0000000000        0.5456729107        0.0249710791
H                0.0000000000        0.4543271079        0.5249710684
H                0.5000000000        0.0456729603        0.0249710703
H                0.5000000000        0.9543270291        0.5249710523
H                0.6661754800        0.7727350362        0.9822260587
H                0.3338245202        0.2272649692        0.4822260553
H                0.6661754798        0.2272649692        0.4822260553
H                0.3338245200        0.7727350362        0.9822260587
H                0.1661755357        0.2727350117        0.9822260671
H                0.8338244644        0.7272649876        0.4822260581
H                0.1661755356        0.7272649876        0.4822260581
H                0.8338244643        0.2727350117        0.9822260671



     Writing config-only to output data dir ./iceIh/iceIh.save/ :
     XML data file
     NEW-OLD atomic charge density approx. for the potential

     negative rho (up, down):  2.276E-06 0.000E+00

     total cpu time spent up to now is      443.5 secs

     per-process dynamical memory:    79.0 Mb

     Self-consistent Calculation

     iteration #  1     ecut=    90.00 Ry     beta= 0.70
     Davidson diagonalization with overlap
     ethr =  1.00E-06,  avg # of iterations =  5.0

     negative rho (up, down):  2.013E-06 0.000E+00

     total cpu time spent up to now is      463.9 secs

     total energy              =    -275.98331367 Ry
     estimated scf accuracy    <       0.00077200 Ry

     iteration #  2     ecut=    90.00 Ry     beta= 0.70
     Davidson diagonalization with overlap
     ethr =  1.21E-06,  avg # of iterations =  2.0

     negative rho (up, down):  2.113E-06 0.000E+00

     total cpu time spent up to now is      473.8 secs

     total energy              =    -275.98342031 Ry
     estimated scf accuracy    <       0.00008108 Ry

     iteration #  3     ecut=    90.00 Ry     beta= 0.70
     Davidson diagonalization with overlap
     ethr =  1.27E-07,  avg # of iterations =  2.3

     negative rho (up, down):  2.124E-06 0.000E+00

     total cpu time spent up to now is      485.0 secs

     total energy              =    -275.98343842 Ry
     estimated scf accuracy    <       0.00001845 Ry

     iteration #  4     ecut=    90.00 Ry     beta= 0.70
     Davidson diagonalization with overlap
     ethr =  2.88E-08,  avg # of iterations =  2.3

     negative rho (up, down):  2.126E-06 0.000E+00

     total cpu time spent up to now is      495.1 secs

     total energy              =    -275.98344136 Ry
     estimated scf accuracy    <       0.00000065 Ry

     iteration #  5     ecut=    90.00 Ry     beta= 0.70
     Davidson diagonalization with overlap
     ethr =  1.02E-09,  avg # of iterations =  3.0

     negative rho (up, down):  2.129E-06 0.000E+00

     total cpu time spent up to now is      508.4 secs

     total energy              =    -275.98344159 Ry
     estimated scf accuracy    <       0.00000039 Ry

     iteration #  6     ecut=    90.00 Ry     beta= 0.70
     Davidson diagonalization with overlap
     ethr =  6.14E-10,  avg # of iterations =  2.0

     negative rho (up, down):  2.132E-06 0.000E+00

     total cpu time spent up to now is      518.3 secs

     total energy              =    -275.98344162 Ry
     estimated scf accuracy    <       0.00000004 Ry

     iteration #  7     ecut=    90.00 Ry     beta= 0.70
     Davidson diagonalization with overlap
     ethr =  6.21E-11,  avg # of iterations =  4.5

     negative rho (up, down):  2.131E-06 0.000E+00

     total cpu time spent up to now is      533.3 secs

     total energy              =    -275.98344164 Ry
     estimated scf accuracy    <       0.00000004 Ry

     iteration #  8     ecut=    90.00 Ry     beta= 0.70
     Davidson diagonalization with overlap
     ethr =  5.82E-11,  avg # of iterations =  2.0

     negative rho (up, down):  2.130E-06 0.000E+00

     total cpu time spent up to now is      542.9 secs

     End of self-consistent calculation

     Number of k-points >= 100: set verbosity='high' to print the bands.

     highest occupied level (ev):    -4.2987

!    total energy              =    -275.98344164 Ry
     estimated scf accuracy    <          2.9E-09 Ry

     The total energy is the sum of the following terms:
     one-electron contribution =    -259.54654061 Ry
     hartree contribution      =     148.48295705 Ry
     xc contribution           =     -67.48891208 Ry
     ewald contribution        =     -97.43094600 Ry

     convergence has been achieved in   8 iterations

     Forces acting on atoms (cartesian axes, Ry/au):

     atom    1 type  2   force =     0.00000000    0.01097588   -0.01249864
     atom    2 type  2   force =     0.00000000   -0.01097565   -0.01249911
     atom    3 type  2   force =     0.00000000    0.01097710   -0.01249806
     atom    4 type  2   force =     0.00000000   -0.01097727   -0.01249812
     atom    5 type  2   force =     0.00000000    0.00725355   -0.00023233
     atom    6 type  2   force =     0.00000000   -0.00725349   -0.00023231
     atom    7 type  2   force =     0.00000000    0.00725342   -0.00023210
     atom    8 type  2   force =     0.00000000   -0.00725326   -0.00023196
     atom    9 type  1   force =     0.00000000   -0.00404553    0.00988981
     atom   10 type  1   force =     0.00000000    0.00404555    0.00989016
     atom   11 type  1   force =     0.00000000   -0.00404564    0.00988953
     atom   12 type  1   force =     0.00000000    0.00404561    0.00988969
     atom   13 type  1   force =     0.00000000   -0.00347153    0.00243259
     atom   14 type  1   force =     0.00000000    0.00347129    0.00243269
     atom   15 type  1   force =     0.00000000   -0.00347260    0.00243234
     atom   16 type  1   force =     0.00000000    0.00347278    0.00243226
     atom   17 type  1   force =    -0.00147187   -0.00467545    0.00020426
     atom   18 type  1   force =     0.00147189    0.00467542    0.00020426
     atom   19 type  1   force =    -0.00147189    0.00467542    0.00020426
     atom   20 type  1   force =     0.00147187   -0.00467545    0.00020426
     atom   21 type  1   force =    -0.00147216   -0.00467536    0.00020417
     atom   22 type  1   force =     0.00147225    0.00467528    0.00020410
     atom   23 type  1   force =    -0.00147225    0.00467528    0.00020410
     atom   24 type  1   force =     0.00147216   -0.00467536    0.00020417

     Total force =     0.045151     Total SCF correction =     0.000074


     Computing stress (Cartesian axis) and pressure

          total   stress  (Ry/bohr**3)                   (kbar)     P=      -17.68
  -0.00015258   0.00000000   0.00000000          -22.45        0.00        0.00
   0.00000000  -0.00011290  -0.00000000            0.00      -16.61       -0.00
   0.00000000  -0.00000000  -0.00009502            0.00       -0.00      -13.98

     Energy error            =      6.7E-03 Ry
     Gradient error          =      1.2E-02 Ry/Bohr

     number of scf cycles    =   4
     number of bfgs steps    =   3

     energy             old  =    -275.9767535513 Ry
     energy             new  =    -275.9834416438 Ry

     CASE: energy            _new < energy            _old

     new trust radius        =       0.0265782513 bohr
     new conv_thr            =       0.0000000125 Ry


ATOMIC_POSITIONS (crystal)
O                0.0000000000        0.6605863591        0.0617031181
O                0.0000000000        0.3394136703        0.5617030914
O                0.5000000000        0.1605864155        0.0617031691
O                0.5000000000        0.8394135737        0.5617031280
O                0.5000000000        0.8302599475        0.9360105817
O                0.5000000000        0.1697400429        0.4360105982
O                0.0000000000        0.3302598837        0.9360105954
O                0.0000000000        0.6697401133        0.4360105758
H                0.0000000000        0.6594063877        0.1896440462
H                0.0000000000        0.3405936215        0.6896440655
H                0.5000000000        0.1594064074        0.1896440200
H                0.5000000000        0.8405935839        0.6896439745
H                0.0000000000        0.5459831454        0.0260156953
H                0.0000000000        0.4540168519        0.5260156941
H                0.5000000000        0.0459831151        0.0260156632
H                0.5000000000        0.9540168841        0.5260156366
H                0.6644156483        0.7719902725        0.9823133034
H                0.3355843531        0.2280097312        0.4823133000
H                0.6644156469        0.2280097312        0.4823133000
H                0.3355843517        0.7719902725        0.9823133034
H                0.1644156822        0.2719902470        0.9823133087
H                0.8355843190        0.7280097479        0.4823132943
H                0.1644156810        0.7280097479        0.4823132943
H                0.8355843178        0.2719902470        0.9823133087



     Writing config-only to output data dir ./iceIh/iceIh.save/ :
     XML data file
     NEW-OLD atomic charge density approx. for the potential

     negative rho (up, down):  2.113E-06 0.000E+00

     total cpu time spent up to now is      555.0 secs

     per-process dynamical memory:    79.0 Mb

     Self-consistent Calculation

     iteration #  1     ecut=    90.00 Ry     beta= 0.70
     Davidson diagonalization with overlap
     ethr =  1.00E-06,  avg # of iterations =  5.0

     negative rho (up, down):  1.917E-06 0.000E+00

     total cpu time spent up to now is      574.4 secs

     total energy              =    -275.98424676 Ry
     estimated scf accuracy    <       0.00088971 Ry

     iteration #  2     ecut=    90.00 Ry     beta= 0.70
     Davidson diagonalization with overlap
     ethr =  1.39E-06,  avg # of iterations =  3.0

     negative rho (up, down):  2.013E-06 0.000E+00

     total cpu time spent up to now is      586.7 secs

     total energy              =    -275.98444464 Ry
     estimated scf accuracy    <       0.00027407 Ry

     iteration #  3     ecut=    90.00 Ry     beta= 0.70
     Davidson diagonalization with overlap
     ethr =  4.28E-07,  avg # of iterations =  3.0

     negative rho (up, down):  2.060E-06 0.000E+00

     total cpu time spent up to now is      597.8 secs

     total energy              =    -275.98450039 Ry
     estimated scf accuracy    <       0.00001006 Ry

     iteration #  4     ecut=    90.00 Ry     beta= 0.70
     Davidson diagonalization with overlap
     ethr =  1.57E-08,  avg # of iterations =  3.0

     negative rho (up, down):  2.058E-06 0.000E+00

     total cpu time spent up to now is      610.0 secs

     total energy              =    -275.98450254 Ry
     estimated scf accuracy    <       0.00000395 Ry

     iteration #  5     ecut=    90.00 Ry     beta= 0.70
     Davidson diagonalization with overlap
     ethr =  6.17E-09,  avg # of iterations =  2.0

     negative rho (up, down):  2.058E-06 0.000E+00

     total cpu time spent up to now is      620.4 secs

     total energy              =    -275.98450317 Ry
     estimated scf accuracy    <       0.00000037 Ry

     iteration #  6     ecut=    90.00 Ry     beta= 0.70
     Davidson diagonalization with overlap
     ethr =  5.84E-10,  avg # of iterations =  3.0

     negative rho (up, down):  2.062E-06 0.000E+00

     total cpu time spent up to now is      632.9 secs

     total energy              =    -275.98450328 Ry
     estimated scf accuracy    <       0.00000011 Ry

     iteration #  7     ecut=    90.00 Ry     beta= 0.70
     Davidson diagonalization with overlap
     ethr =  1.74E-10,  avg # of iterations =  2.0

     negative rho (up, down):  2.063E-06 0.000E+00

     total cpu time spent up to now is      644.0 secs

     End of self-consistent calculation

     Number of k-points >= 100: set verbosity='high' to print the bands.

     highest occupied level (ev):    -4.2878

!    total energy              =    -275.98450330 Ry
     estimated scf accuracy    <          2.4E-09 Ry

     The total energy is the sum of the following terms:
     one-electron contribution =    -259.04696918 Ry
     hartree contribution      =     148.24259419 Ry
     xc contribution           =     -67.43912784 Ry
     ewald contribution        =     -97.74100047 Ry

     convergence has been achieved in   7 iterations

     Forces acting on atoms (cartesian axes, Ry/au):

     atom    1 type  2   force =     0.00000000    0.00399456    0.01173374
     atom    2 type  2   force =     0.00000000   -0.00399508    0.01173446
     atom    3 type  2   force =     0.00000000    0.00399323    0.01173238
     atom    4 type  2   force =     0.00000000   -0.00399313    0.01173234
     atom    5 type  2   force =     0.00000000   -0.00031927    0.00466530
     atom    6 type  2   force =     0.00000000    0.00031927    0.00466528
     atom    7 type  2   force =     0.00000000   -0.00031911    0.00466509
     atom    8 type  2   force =     0.00000000    0.00031914    0.00466512
     atom    9 type  1   force =     0.00000000    0.00142580   -0.00863681
     atom   10 type  1   force =     0.00000000   -0.00142579   -0.00863736
     atom   11 type  1   force =     0.00000000    0.00142575   -0.00863595
     atom   12 type  1   force =     0.00000000   -0.00142577   -0.00863590
     atom   13 type  1   force =     0.00000000   -0.00191386   -0.00261213
     atom   14 type  1   force =     0.00000000    0.00191435   -0.00261227
     atom   15 type  1   force =     0.00000000   -0.00191258   -0.00261171
     atom   16 type  1   force =     0.00000000    0.00191251   -0.00261170
     atom   17 type  1   force =     0.00136122   -0.00060477   -0.00257502
     atom   18 type  1   force =    -0.00136123    0.00060478   -0.00257501
     atom   19 type  1   force =     0.00136123    0.00060478   -0.00257501
     atom   20 type  1   force =    -0.00136122   -0.00060477   -0.00257502
     atom   21 type  1   force =     0.00136121   -0.00060486   -0.00257495
     atom   22 type  1   force =    -0.00136120    0.00060486   -0.00257496
     atom   23 type  1   force =     0.00136120    0.00060486   -0.00257496
     atom   24 type  1   force =    -0.00136121   -0.00060486   -0.00257495

     Total force =     0.033484     Total SCF correction =     0.000066


     Computing stress (Cartesian axis) and pressure

          total   stress  (Ry/bohr**3)                   (kbar)     P=      -21.23
  -0.00013949   0.00000000   0.00000000          -20.52        0.00        0.00
   0.00000000  -0.00012516  -0.00000000            0.00      -18.41       -0.00
   0.00000000  -0.00000000  -0.00016834            0.00       -0.00      -24.76

     Energy error            =      1.1E-03 Ry
     Gradient error          =      1.2E-02 Ry/Bohr

     number of scf cycles    =   5
     number of bfgs steps    =   4

     energy             old  =    -275.9834416438 Ry
     energy             new  =    -275.9845033019 Ry

     CASE: energy            _new < energy            _old

     new trust radius        =       0.0075937116 bohr
     new conv_thr            =       0.0000000106 Ry


ATOMIC_POSITIONS (crystal)
O                0.0000000000        0.6606957732        0.0622041485
O                0.0000000000        0.3393042357        0.5622041504
O                0.5000000000        0.1606957826        0.0622041433
O                0.5000000000        0.8393042111        0.5622041025
O                0.5000000000        0.8302097243        0.9362728979
O                0.5000000000        0.1697902663        0.4362729133
O                0.0000000000        0.3302096679        0.9362729027
O                0.0000000000        0.6697903292        0.4362728838
H                0.0000000000        0.6595370983        0.1893577985
H                0.0000000000        0.3404629112        0.6893577958
H                0.5000000000        0.1595371151        0.1893578073
H                0.5000000000        0.8404628754        0.6893577628
H                0.0000000000        0.5458989668        0.0258207727
H                0.0000000000        0.4541010492        0.5258207660
H                0.5000000000        0.0458989830        0.0258207577
H                0.5000000000        0.9541010126        0.5258207314
H                0.6647089818        0.7719859498        0.9821722168
H                0.3352910187        0.2280140541        0.4821722140
H                0.6647089813        0.2280140541        0.4821722140
H                0.3352910182        0.7719859498        0.9821722168
H                0.1647090107        0.2719859210        0.9821722247
H                0.8352909898        0.7280140742        0.4821722102
H                0.1647090102        0.7280140742        0.4821722102
H                0.8352909893        0.2719859210        0.9821722247



     Writing config-only to output data dir ./iceIh/iceIh.save/ :
     XML data file
     NEW-OLD atomic charge density approx. for the potential

     negative rho (up, down):  2.061E-06 0.000E+00

     total cpu time spent up to now is      656.1 secs

     per-process dynamical memory:    80.0 Mb

     Self-consistent Calculation

     iteration #  1     ecut=    90.00 Ry     beta= 0.70
     Davidson diagonalization with overlap
     ethr =  1.00E-06,  avg # of iterations =  3.0

     negative rho (up, down):  2.120E-06 0.000E+00

     total cpu time spent up to now is      670.5 secs

     total energy              =    -275.98489129 Ry
     estimated scf accuracy    <       0.00007554 Ry

     iteration #  2     ecut=    90.00 Ry     beta= 0.70
     Davidson diagonalization with overlap
     ethr =  1.18E-07,  avg # of iterations =  2.0

     negative rho (up, down):  2.115E-06 0.000E+00

     total cpu time spent up to now is      681.5 secs

     total energy              =    -275.98490508 Ry
     estimated scf accuracy    <       0.00001095 Ry

     iteration #  3     ecut=    90.00 Ry     beta= 0.70
     Davidson diagonalization with overlap
     ethr =  1.71E-08,  avg # of iterations =  2.0

     negative rho (up, down):  2.119E-06 0.000E+00

     total cpu time spent up to now is      692.5 secs

     total energy              =    -275.98490773 Ry
     estimated scf accuracy    <       0.00000076 Ry

     iteration #  4     ecut=    90.00 Ry     beta= 0.70
     Davidson diagonalization with overlap
     ethr =  1.19E-09,  avg # of iterations =  2.0

     negative rho (up, down):  2.121E-06 0.000E+00

     total cpu time spent up to now is      702.3 secs

     total energy              =    -275.98490780 Ry
     estimated scf accuracy    <       0.00000007 Ry

     iteration #  5     ecut=    90.00 Ry     beta= 0.70
     Davidson diagonalization with overlap
     ethr =  1.07E-10,  avg # of iterations =  3.0

     negative rho (up, down):  2.120E-06 0.000E+00

     total cpu time spent up to now is      714.8 secs

     total energy              =    -275.98490782 Ry
     estimated scf accuracy    <       0.00000002 Ry

     iteration #  6     ecut=    90.00 Ry     beta= 0.70
     Davidson diagonalization with overlap
     ethr =  3.26E-11,  avg # of iterations =  2.0

     negative rho (up, down):  2.119E-06 0.000E+00

     total cpu time spent up to now is      725.1 secs

     End of self-consistent calculation

     Number of k-points >= 100: set verbosity='high' to print the bands.

     highest occupied level (ev):    -4.2923

!    total energy              =    -275.98490783 Ry
     estimated scf accuracy    <          4.3E-09 Ry

     The total energy is the sum of the following terms:
     one-electron contribution =    -259.15781337 Ry
     hartree contribution      =     148.29506549 Ry
     xc contribution           =     -67.44965495 Ry
     ewald contribution        =     -97.67250499 Ry

     convergence has been achieved in   6 iterations

     Forces acting on atoms (cartesian axes, Ry/au):

     atom    1 type  2   force =     0.00000000   -0.00023722   -0.00018180
     atom    2 type  2   force =     0.00000000    0.00023732   -0.00018189
     atom    3 type  2   force =     0.00000000   -0.00023712   -0.00018160
     atom    4 type  2   force =     0.00000000    0.00023709   -0.00018161
     atom    5 type  2   force =     0.00000000    0.00079990    0.00381956
     atom    6 type  2   force =     0.00000000   -0.00079989    0.00381955
     atom    7 type  2   force =     0.00000000    0.00080000    0.00381954
     atom    8 type  2   force =     0.00000000   -0.00080000    0.00381955
     atom    9 type  1   force =     0.00000000    0.00068033    0.00050714
     atom   10 type  1   force =     0.00000000   -0.00068033    0.00050719
     atom   11 type  1   force =     0.00000000    0.00068029    0.00050695
     atom   12 type  1   force =     0.00000000   -0.00068030    0.00050700
     atom   13 type  1   force =     0.00000000    0.00254759   -0.00042022
     atom   14 type  1   force =     0.00000000   -0.00254770   -0.00042018
     atom   15 type  1   force =     0.00000000    0.00254753   -0.00042021
     atom   16 type  1   force =     0.00000000   -0.00254749   -0.00042023
     atom   17 type  1   force =     0.00084436   -0.00100991   -0.00186235
     atom   18 type  1   force =    -0.00084436    0.00100990   -0.00186234
     atom   19 type  1   force =     0.00084436    0.00100990   -0.00186234
     atom   20 type  1   force =    -0.00084436   -0.00100991   -0.00186235
     atom   21 type  1   force =     0.00084430   -0.00100994   -0.00186234
     atom   22 type  1   force =    -0.00084430    0.00100994   -0.00186234
     atom   23 type  1   force =     0.00084430    0.00100994   -0.00186234
     atom   24 type  1   force =    -0.00084430   -0.00100994   -0.00186234

     Total force =     0.011508     Total SCF correction =     0.000098


     Computing stress (Cartesian axis) and pressure

          total   stress  (Ry/bohr**3)                   (kbar)     P=      -20.48
  -0.00014208   0.00000000   0.00000000          -20.90        0.00        0.00
   0.00000000  -0.00014223   0.00000000            0.00      -20.92        0.00
   0.00000000   0.00000000  -0.00013328            0.00        0.00      -19.61

     Energy error            =      4.0E-04 Ry
     Gradient error          =      3.8E-03 Ry/Bohr

     number of scf cycles    =   6
     number of bfgs steps    =   5

     energy             old  =    -275.9845033019 Ry
     energy             new  =    -275.9849078251 Ry

     CASE: energy            _new < energy            _old

     new trust radius        =       0.0051025404 bohr
     new conv_thr            =       0.0000000038 Ry


ATOMIC_POSITIONS (crystal)
O                0.0000000000        0.6607540040        0.0622894629
O                0.0000000000        0.3392460076        0.5622894642
O                0.5000000000        0.1607540098        0.0622894588
O                0.5000000000        0.8392459821        0.5622894167
O                0.5000000000        0.8302649821        0.9366135163
O                0.5000000000        0.1697350098        0.4366135308
O                0.0000000000        0.3302649342        0.9366135177
O                0.0000000000        0.6697350639        0.4366135007
H                0.0000000000        0.6596063318        0.1893514898
H                0.0000000000        0.3403936783        0.6893514859
H                0.5000000000        0.1596063449        0.1893514928
H                0.5000000000        0.8403936447        0.6893514535
H                0.0000000000        0.5460224520        0.0257399633
H                0.0000000000        0.4539775605        0.5257399583
H                0.5000000000        0.0460224739        0.0257399533
H                0.5000000000        0.9539775242        0.5257399252
H                0.6648747676        0.7719066795        0.9820028092
H                0.3351252325        0.2280933238        0.4820028071
H                0.6648747675        0.2280933238        0.4820028071
H                0.3351252324        0.7719066795        0.9820028092
H                0.1648747871        0.2719066478        0.9820028186
H                0.8351252140        0.7280933470        0.4820028030
H                0.1648747860        0.7280933470        0.4820028030
H                0.8351252129        0.2719066478        0.9820028186



     Writing config-only to output data dir ./iceIh/iceIh.save/ :
     XML data file
     NEW-OLD atomic charge density approx. for the potential

     negative rho (up, down):  2.129E-06 0.000E+00

     total cpu time spent up to now is      737.2 secs

     per-process dynamical memory:    80.0 Mb

     Self-consistent Calculation

     iteration #  1     ecut=    90.00 Ry     beta= 0.70
     Davidson diagonalization with overlap
     ethr =  1.00E-06,  avg # of iterations =  3.0

     Threshold (ethr) on eigenvalues was too large:
     Diagonalizing with lowered threshold

     Davidson diagonalization with overlap
     ethr =  2.23E-08,  avg # of iterations =  3.0

     negative rho (up, down):  2.146E-06 0.000E+00

     total cpu time spent up to now is      760.8 secs

     total energy              =    -275.98504405 Ry
     estimated scf accuracy    <       0.00001700 Ry

     iteration #  2     ecut=    90.00 Ry     beta= 0.70
     Davidson diagonalization with overlap
     ethr =  2.66E-08,  avg # of iterations =  2.0

     negative rho (up, down):  2.149E-06 0.000E+00

     total cpu time spent up to now is      771.2 secs

     total energy              =    -275.98504679 Ry
     estimated scf accuracy    <       0.00000217 Ry

     iteration #  3     ecut=    90.00 Ry     beta= 0.70
     Davidson diagonalization with overlap
     ethr =  3.38E-09,  avg # of iterations =  3.0

     negative rho (up, down):  2.156E-06 0.000E+00

     total cpu time spent up to now is      783.0 secs

     total energy              =    -275.98504734 Ry
     estimated scf accuracy    <       0.00000022 Ry

     iteration #  4     ecut=    90.00 Ry     beta= 0.70
     Davidson diagonalization with overlap
     ethr =  3.41E-10,  avg # of iterations =  2.7

     negative rho (up, down):  2.158E-06 0.000E+00

     total cpu time spent up to now is      792.9 secs

     total energy              =    -275.98504737 Ry
     estimated scf accuracy    <       0.00000001 Ry

     iteration #  5     ecut=    90.00 Ry     beta= 0.70
     Davidson diagonalization with overlap
     ethr =  1.84E-11,  avg # of iterations =  3.0

     negative rho (up, down):  2.158E-06 0.000E+00

     total cpu time spent up to now is      805.4 secs

     End of self-consistent calculation

     Number of k-points >= 100: set verbosity='high' to print the bands.

     highest occupied level (ev):    -4.2947

!    total energy              =    -275.98504738 Ry
     estimated scf accuracy    <          3.1E-09 Ry

     The total energy is the sum of the following terms:
     one-electron contribution =    -259.20419306 Ry
     hartree contribution      =     148.31778712 Ry
     xc contribution           =     -67.45393813 Ry
     ewald contribution        =     -97.64470331 Ry

     convergence has been achieved in   5 iterations

     Forces acting on atoms (cartesian axes, Ry/au):

     atom    1 type  2   force =     0.00000000    0.00016520   -0.00152277
     atom    2 type  2   force =     0.00000000   -0.00016518   -0.00152284
     atom    3 type  2   force =     0.00000000    0.00016541   -0.00152261
     atom    4 type  2   force =     0.00000000   -0.00016538   -0.00152256
     atom    5 type  2   force =     0.00000000    0.00146741    0.00272943
     atom    6 type  2   force =     0.00000000   -0.00146740    0.00272942
     atom    7 type  2   force =     0.00000000    0.00146743    0.00272946
     atom    8 type  2   force =     0.00000000   -0.00146746    0.00272945
     atom    9 type  1   force =     0.00000000    0.00043197    0.00150674
     atom   10 type  1   force =     0.00000000   -0.00043197    0.00150680
     atom   11 type  1   force =     0.00000000    0.00043194    0.00150663
     atom   12 type  1   force =     0.00000000   -0.00043195    0.00150660
     atom   13 type  1   force =     0.00000000    0.00221270   -0.00013240
     atom   14 type  1   force =     0.00000000   -0.00221273   -0.00013238
     atom   15 type  1   force =     0.00000000    0.00221252   -0.00013243
     atom   16 type  1   force =     0.00000000   -0.00221254   -0.00013243
     atom   17 type  1   force =     0.00070849   -0.00129131   -0.00129051
     atom   18 type  1   force =    -0.00070849    0.00129130   -0.00129050
     atom   19 type  1   force =     0.00070849    0.00129130   -0.00129050
     atom   20 type  1   force =    -0.00070849   -0.00129131   -0.00129051
     atom   21 type  1   force =     0.00070843   -0.00129130   -0.00129052
     atom   22 type  1   force =    -0.00070845    0.00129132   -0.00129052
     atom   23 type  1   force =     0.00070845    0.00129132   -0.00129052
     atom   24 type  1   force =    -0.00070843   -0.00129130   -0.00129052

     Total force =     0.010390     Total SCF correction =     0.000032


     Computing stress (Cartesian axis) and pressure

          total   stress  (Ry/bohr**3)                   (kbar)     P=      -20.17
  -0.00014218   0.00000000   0.00000000          -20.92        0.00        0.00
   0.00000000  -0.00014020   0.00000000            0.00      -20.62        0.00
   0.00000000   0.00000000  -0.00012886            0.00        0.00      -18.96

     Energy error            =      1.4E-04 Ry
     Gradient error          =      2.7E-03 Ry/Bohr

     number of scf cycles    =   7
     number of bfgs steps    =   6

     energy             old  =    -275.9849078251 Ry
     energy             new  =    -275.9850473763 Ry

     CASE: energy            _new < energy            _old

     new trust radius        =       0.0056127945 bohr
     new conv_thr            =       0.0000000014 Ry


ATOMIC_POSITIONS (crystal)
O                0.0000000000        0.6608780924        0.0623191388
O                0.0000000000        0.3391219165        0.5623191423
O                0.5000000000        0.1608780972        0.0623191309
O                0.5000000000        0.8391218960        0.5623190911
O                0.5000000000        0.8304068653        0.9369624735
O                0.5000000000        0.1695931279        0.4369624871
O                0.0000000000        0.3304068233        0.9369624739
O                0.0000000000        0.6695931742        0.4369624578
H                0.0000000000        0.6596409804        0.1893539951
H                0.0000000000        0.3403590303        0.6893539889
H                0.5000000000        0.1596409896        0.1893539986
H                0.5000000000        0.8403589987        0.6893539601
H                0.0000000000        0.5461793368        0.0257029809
H                0.0000000000        0.4538206772        0.5257029761
H                0.5000000000        0.0461793618        0.0257029752
H                0.5000000000        0.9538206359        0.5257029459
H                0.6649761262        0.7717691255        0.9818307306
H                0.3350238735        0.2282308774        0.4818307294
H                0.6649761265        0.2282308774        0.4818307294
H                0.3350238738        0.7717691255        0.9818307306
H                0.1649761348        0.2717690919        0.9818307405
H                0.8350238645        0.7282309034        0.4818307244
H                0.1649761355        0.7282309034        0.4818307244
H                0.8350238652        0.2717690919        0.9818307405



     Writing config-only to output data dir ./iceIh/iceIh.save/ :
     XML data file
     NEW-OLD atomic charge density approx. for the potential

     negative rho (up, down):  2.167E-06 0.000E+00

     total cpu time spent up to now is      821.0 secs

     per-process dynamical memory:    80.0 Mb

     Self-consistent Calculation

     iteration #  1     ecut=    90.00 Ry     beta= 0.70
     Davidson diagonalization with overlap
     ethr =  1.00E-06,  avg # of iterations =  3.0

     Threshold (ethr) on eigenvalues was too large:
     Diagonalizing with lowered threshold

     Davidson diagonalization with overlap
     ethr =  2.34E-08,  avg # of iterations =  2.5

     negative rho (up, down):  2.255E-06 0.000E+00

     total cpu time spent up to now is      844.3 secs

     total energy              =    -275.98517628 Ry
     estimated scf accuracy    <       0.00001787 Ry

     iteration #  2     ecut=    90.00 Ry     beta= 0.70
     Davidson diagonalization with overlap
     ethr =  2.79E-08,  avg # of iterations =  2.0

     negative rho (up, down):  2.282E-06 0.000E+00

     total cpu time spent up to now is      853.7 secs

     total energy              =    -275.98517854 Ry
     estimated scf accuracy    <       0.00000118 Ry

     iteration #  3     ecut=    90.00 Ry     beta= 0.70
     Davidson diagonalization with overlap
     ethr =  1.84E-09,  avg # of iterations =  3.0

     negative rho (up, down):  2.290E-06 0.000E+00

     total cpu time spent up to now is      865.8 secs

     total energy              =    -275.98517881 Ry
     estimated scf accuracy    <       0.00000042 Ry

     iteration #  4     ecut=    90.00 Ry     beta= 0.70
     Davidson diagonalization with overlap
     ethr =  6.63E-10,  avg # of iterations =  3.0

     negative rho (up, down):  2.295E-06 0.000E+00

     total cpu time spent up to now is      876.8 secs

     total energy              =    -275.98517890 Ry
     estimated scf accuracy    <       0.00000001 Ry

     iteration #  5     ecut=    90.00 Ry     beta= 0.70
     Davidson diagonalization with overlap
     ethr =  1.69E-11,  avg # of iterations =  3.9

     negative rho (up, down):  2.295E-06 0.000E+00

     total cpu time spent up to now is      890.4 secs

     total energy              =    -275.98517890 Ry
     estimated scf accuracy    <          6.2E-09 Ry

     iteration #  6     ecut=    90.00 Ry     beta= 0.70
     Davidson diagonalization with overlap
     ethr =  9.72E-12,  avg # of iterations =  2.0

     negative rho (up, down):  2.295E-06 0.000E+00

     total cpu time spent up to now is      900.1 secs

     End of self-consistent calculation

     Number of k-points >= 100: set verbosity='high' to print the bands.

     highest occupied level (ev):    -4.2970

!    total energy              =    -275.98517890 Ry
     estimated scf accuracy    <          3.3E-10 Ry

     The total energy is the sum of the following terms:
     one-electron contribution =    -259.21358476 Ry
     hartree contribution      =     148.32315386 Ry
     xc contribution           =     -67.45459736 Ry
     ewald contribution        =     -97.64015064 Ry

     convergence has been achieved in   6 iterations

     Forces acting on atoms (cartesian axes, Ry/au):

     atom    1 type  2   force =     0.00000000    0.00026703   -0.00189230
     atom    2 type  2   force =     0.00000000   -0.00026695   -0.00189245
     atom    3 type  2   force =     0.00000000    0.00026730   -0.00189206
     atom    4 type  2   force =     0.00000000   -0.00026729   -0.00189203
     atom    5 type  2   force =     0.00000000    0.00130892    0.00215998
     atom    6 type  2   force =     0.00000000   -0.00130891    0.00215998
     atom    7 type  2   force =     0.00000000    0.00130893    0.00216003
     atom    8 type  2   force =     0.00000000   -0.00130894    0.00216002
     atom    9 type  1   force =     0.00000000    0.00043360    0.00177301
     atom   10 type  1   force =     0.00000000   -0.00043359    0.00177312
     atom   11 type  1   force =     0.00000000    0.00043358    0.00177286
     atom   12 type  1   force =     0.00000000   -0.00043358    0.00177284
     atom   13 type  1   force =     0.00000000    0.00190466   -0.00007812
     atom   14 type  1   force =     0.00000000   -0.00190474   -0.00007809
     atom   15 type  1   force =     0.00000000    0.00190440   -0.00007819
     atom   16 type  1   force =     0.00000000   -0.00190441   -0.00007818
     atom   17 type  1   force =     0.00042709   -0.00114740   -0.00098129
     atom   18 type  1   force =    -0.00042709    0.00114740   -0.00098129
     atom   19 type  1   force =     0.00042709    0.00114740   -0.00098129
     atom   20 type  1   force =    -0.00042709   -0.00114740   -0.00098129
     atom   21 type  1   force =     0.00042706   -0.00114738   -0.00098131
     atom   22 type  1   force =    -0.00042707    0.00114739   -0.00098131
     atom   23 type  1   force =     0.00042707    0.00114739   -0.00098131
     atom   24 type  1   force =    -0.00042706   -0.00114738   -0.00098131

     Total force =     0.009364     Total SCF correction =     0.000034


     Computing stress (Cartesian axis) and pressure

          total   stress  (Ry/bohr**3)                   (kbar)     P=      -20.11
  -0.00014321   0.00000000   0.00000000          -21.07        0.00        0.00
   0.00000000  -0.00013927   0.00000000            0.00      -20.49        0.00
   0.00000000   0.00000000  -0.00012763            0.00        0.00      -18.77

     Energy error            =      1.3E-04 Ry
     Gradient error          =      2.2E-03 Ry/Bohr

     number of scf cycles    =   8
     number of bfgs steps    =   7

     energy             old  =    -275.9850473763 Ry
     energy             new  =    -275.9851789038 Ry

     CASE: energy            _new < energy            _old

     new trust radius        =       0.0084191917 bohr
     new conv_thr            =       0.0000000013 Ry


ATOMIC_POSITIONS (crystal)
O                0.0000000000        0.6610916354        0.0623221970
O                0.0000000000        0.3389083763        0.5623221952
O                0.5000000000        0.1610916451        0.0623221938
O                0.5000000000        0.8389083485        0.5623221552
O                0.5000000000        0.8306341444        0.9374789811
O                0.5000000000        0.1693658506        0.4374789933
O                0.0000000000        0.3306341100        0.9374789816
O                0.0000000000        0.6693658874        0.4374789671
H                0.0000000000        0.6596896462        0.1893767805
H                0.0000000000        0.3403103653        0.6893767772
H                0.5000000000        0.1596896505        0.1893767786
H                0.5000000000        0.8403103365        0.6893767434
H                0.0000000000        0.5464251236        0.0256629550
H                0.0000000000        0.4535748864        0.5256629523
H                0.5000000000        0.0464251460        0.0256629521
H                0.5000000000        0.9535748521        0.5256629215
H                0.6650647232        0.7715501231        0.9815795667
H                0.3349352759        0.2284498791        0.4815795670
H                0.6650647241        0.2284498791        0.4815795670
H                0.3349352768        0.7715501231        0.9815795667
H                0.1650647197        0.2715500874        0.9815795770
H                0.8349352786        0.7284499083        0.4815795599
H                0.1650647214        0.7284499083        0.4815795599
H                0.8349352803        0.2715500874        0.9815795770



     Writing config-only to output data dir ./iceIh/iceIh.save/ :
     XML data file
     NEW-OLD atomic charge density approx. for the potential

     negative rho (up, down):  2.312E-06 0.000E+00

     total cpu time spent up to now is      912.1 secs

     per-process dynamical memory:    80.0 Mb

     Self-consistent Calculation

     iteration #  1     ecut=    90.00 Ry     beta= 0.70
     Davidson diagonalization with overlap
     ethr =  1.00E-06,  avg # of iterations =  3.0

     Threshold (ethr) on eigenvalues was too large:
     Diagonalizing with lowered threshold

     Davidson diagonalization with overlap
     ethr =  5.82E-08,  avg # of iterations =  2.0

     negative rho (up, down):  2.400E-06 0.000E+00

     total cpu time spent up to now is      934.9 secs

     total energy              =    -275.98532839 Ry
     estimated scf accuracy    <       0.00004148 Ry

     iteration #  2     ecut=    90.00 Ry     beta= 0.70
     Davidson diagonalization with overlap
     ethr =  6.48E-08,  avg # of iterations =  2.0

     negative rho (up, down):  2.435E-06 0.000E+00

     total cpu time spent up to now is      944.7 secs

     total energy              =    -275.98533365 Ry
     estimated scf accuracy    <       0.00000353 Ry

     iteration #  3     ecut=    90.00 Ry     beta= 0.70
     Davidson diagonalization with overlap
     ethr =  5.52E-09,  avg # of iterations =  3.0

     negative rho (up, down):  2.452E-06 0.000E+00

     total cpu time spent up to now is      957.0 secs

     total energy              =    -275.98533455 Ry
     estimated scf accuracy    <       0.00000124 Ry

     iteration #  4     ecut=    90.00 Ry     beta= 0.70
     Davidson diagonalization with overlap
     ethr =  1.93E-09,  avg # of iterations =  2.2

     negative rho (up, down):  2.461E-06 0.000E+00

     total cpu time spent up to now is      967.2 secs

     total energy              =    -275.98533476 Ry
     estimated scf accuracy    <       0.00000003 Ry

     iteration #  5     ecut=    90.00 Ry     beta= 0.70
     Davidson diagonalization with overlap
     ethr =  4.96E-11,  avg # of iterations =  6.0

     negative rho (up, down):  2.462E-06 0.000E+00

     total cpu time spent up to now is      984.5 secs

     total energy              =    -275.98533477 Ry
     estimated scf accuracy    <       0.00000008 Ry

     iteration #  6     ecut=    90.00 Ry     beta= 0.70
     Davidson diagonalization with overlap
     ethr =  4.96E-11,  avg # of iterations =  3.0

     negative rho (up, down):  2.462E-06 0.000E+00

     total cpu time spent up to now is      997.4 secs

     End of self-consistent calculation

     Number of k-points >= 100: set verbosity='high' to print the bands.

     highest occupied level (ev):    -4.2995

!    total energy              =    -275.98533479 Ry
     estimated scf accuracy    <          2.6E-10 Ry

     The total energy is the sum of the following terms:
     one-electron contribution =    -259.21512932 Ry
     hartree contribution      =     148.32467548 Ry
     xc contribution           =     -67.45426790 Ry
     ewald contribution        =     -97.64061304 Ry

     convergence has been achieved in   6 iterations

     Forces acting on atoms (cartesian axes, Ry/au):

     atom    1 type  2   force =     0.00000000    0.00029308   -0.00158619
     atom    2 type  2   force =     0.00000000   -0.00029310   -0.00158620
     atom    3 type  2   force =     0.00000000    0.00029323   -0.00158610
     atom    4 type  2   force =     0.00000000   -0.00029321   -0.00158605
     atom    5 type  2   force =     0.00000000    0.00100969    0.00133049
     atom    6 type  2   force =     0.00000000   -0.00100968    0.00133049
     atom    7 type  2   force =     0.00000000    0.00100966    0.00133054
     atom    8 type  2   force =     0.00000000   -0.00100968    0.00133052
     atom    9 type  1   force =     0.00000000    0.00053239    0.00144679
     atom   10 type  1   force =     0.00000000   -0.00053239    0.00144681
     atom   11 type  1   force =     0.00000000    0.00053239    0.00144677
     atom   12 type  1   force =     0.00000000   -0.00053239    0.00144672
     atom   13 type  1   force =     0.00000000    0.00146533   -0.00008996
     atom   14 type  1   force =     0.00000000   -0.00146531   -0.00008997
     atom   15 type  1   force =     0.00000000    0.00146517   -0.00009001
     atom   16 type  1   force =     0.00000000   -0.00146519   -0.00009000
     atom   17 type  1   force =     0.00020860   -0.00089477   -0.00055057
     atom   18 type  1   force =    -0.00020860    0.00089477   -0.00055057
     atom   19 type  1   force =     0.00020860    0.00089477   -0.00055057
     atom   20 type  1   force =    -0.00020860   -0.00089477   -0.00055057
     atom   21 type  1   force =     0.00020860   -0.00089474   -0.00055059
     atom   22 type  1   force =    -0.00020861    0.00089475   -0.00055059
     atom   23 type  1   force =     0.00020861    0.00089475   -0.00055059
     atom   24 type  1   force =    -0.00020860   -0.00089474   -0.00055059

     Total force =     0.006991     Total SCF correction =     0.000039


     Computing stress (Cartesian axis) and pressure

          total   stress  (Ry/bohr**3)                   (kbar)     P=      -20.17
  -0.00014407   0.00000000   0.00000000          -21.19        0.00        0.00
   0.00000000  -0.00013828   0.00000000            0.00      -20.34        0.00
   0.00000000   0.00000000  -0.00012893            0.00        0.00      -18.97

     Energy error            =      1.6E-04 Ry
     Gradient error          =      1.6E-03 Ry/Bohr

     number of scf cycles    =   9
     number of bfgs steps    =   8

     energy             old  =    -275.9851789038 Ry
     energy             new  =    -275.9853347870 Ry

     CASE: energy            _new < energy            _old

     new trust radius        =       0.0126287875 bohr
     new conv_thr            =       0.0000000016 Ry


ATOMIC_POSITIONS (crystal)
O                0.0000000000        0.6614387373        0.0623062408
O                0.0000000000        0.3385612670        0.5623062469
O                0.5000000000        0.1614387466        0.0623062318
O                0.5000000000        0.8385612485        0.5623061988
O                0.5000000000        0.8309960117        0.9382429081
O                0.5000000000        0.1690039861        0.4382429182
O                0.0000000000        0.3309959850        0.9382429099
O                0.0000000000        0.6690040114        0.4382428975
H                0.0000000000        0.6597874609        0.1894167352
H                0.0000000000        0.3402125512        0.6894167255
H                0.5000000000        0.1597874597        0.1894167381
H                0.5000000000        0.8402125263        0.6894167033
H                0.0000000000        0.5468208987        0.0256050351
H                0.0000000000        0.4531791165        0.5256050313
H                0.5000000000        0.0468209218        0.0256050365
H                0.5000000000        0.9531790754        0.5256050052
H                0.6651570041        0.7712011790        0.9812145620
H                0.3348429948        0.2287988222        0.4812145645
H                0.6651570052        0.2287988222        0.4812145645
H                0.3348429959        0.7712011790        0.9812145620
H                0.1651569878        0.2712011425        0.9812145718
H                0.8348430087        0.7287988543        0.4812145535
H                0.1651569913        0.7287988543        0.4812145535
H                0.8348430122        0.2712011425        0.9812145718



     Writing config-only to output data dir ./iceIh/iceIh.save/ :
     XML data file
     NEW-OLD atomic charge density approx. for the potential

     negative rho (up, down):  2.472E-06 0.000E+00

     total cpu time spent up to now is     1009.7 secs

     per-process dynamical memory:    80.0 Mb

     Self-consistent Calculation

     iteration #  1     ecut=    90.00 Ry     beta= 0.70
     Davidson diagonalization with overlap
     ethr =  1.00E-06,  avg # of iterations =  4.0

     negative rho (up, down):  2.613E-06 0.000E+00

     total cpu time spent up to now is     1025.1 secs

     total energy              =    -275.98545364 Ry
     estimated scf accuracy    <       0.00008836 Ry

     iteration #  2     ecut=    90.00 Ry     beta= 0.70
     Davidson diagonalization with overlap
     ethr =  1.38E-07,  avg # of iterations =  2.0

     negative rho (up, down):  2.669E-06 0.000E+00

     total cpu time spent up to now is     1035.2 secs

     total energy              =    -275.98546500 Ry
     estimated scf accuracy    <       0.00000860 Ry

     iteration #  3     ecut=    90.00 Ry     beta= 0.70
     Davidson diagonalization with overlap
     ethr =  1.34E-08,  avg # of iterations =  3.0

     negative rho (up, down):  2.682E-06 0.000E+00

     total cpu time spent up to now is     1047.6 secs

     total energy              =    -275.98546695 Ry
     estimated scf accuracy    <       0.00000344 Ry

     iteration #  4     ecut=    90.00 Ry     beta= 0.70
     Davidson diagonalization with overlap
     ethr =  5.37E-09,  avg # of iterations =  2.3

     negative rho (up, down):  2.689E-06 0.000E+00

     total cpu time spent up to now is     1057.8 secs

     total energy              =    -275.98546756 Ry
     estimated scf accuracy    <       0.00000008 Ry

     iteration #  5     ecut=    90.00 Ry     beta= 0.70
     Davidson diagonalization with overlap
     ethr =  1.21E-10,  avg # of iterations =  5.9

     negative rho (up, down):  2.691E-06 0.000E+00

     total cpu time spent up to now is     1075.6 secs

     total energy              =    -275.98546760 Ry
     estimated scf accuracy    <       0.00000021 Ry

     iteration #  6     ecut=    90.00 Ry     beta= 0.70
     Davidson diagonalization with overlap
     ethr =  1.21E-10,  avg # of iterations =  3.0

     negative rho (up, down):  2.692E-06 0.000E+00

     total cpu time spent up to now is     1088.6 secs

     End of self-consistent calculation

     Number of k-points >= 100: set verbosity='high' to print the bands.

     highest occupied level (ev):    -4.3032

!    total energy              =    -275.98546764 Ry
     estimated scf accuracy    <          6.4E-10 Ry

     The total energy is the sum of the following terms:
     one-electron contribution =    -259.20120022 Ry
     hartree contribution      =     148.31934730 Ry
     xc contribution           =     -67.45224422 Ry
     ewald contribution        =     -97.65137050 Ry

     convergence has been achieved in   6 iterations

     Forces acting on atoms (cartesian axes, Ry/au):

     atom    1 type  2   force =     0.00000000    0.00036921   -0.00075166
     atom    2 type  2   force =     0.00000000   -0.00036904   -0.00075190
     atom    3 type  2   force =     0.00000000    0.00036938   -0.00075141
     atom    4 type  2   force =     0.00000000   -0.00036938   -0.00075143
     atom    5 type  2   force =     0.00000000    0.00012758    0.00037383
     atom    6 type  2   force =     0.00000000   -0.00012758    0.00037383
     atom    7 type  2   force =     0.00000000    0.00012754    0.00037389
     atom    8 type  2   force =     0.00000000   -0.00012756    0.00037387
     atom    9 type  1   force =     0.00000000    0.00069792    0.00064017
     atom   10 type  1   force =     0.00000000   -0.00069793    0.00064036
     atom   11 type  1   force =     0.00000000    0.00069794    0.00064002
     atom   12 type  1   force =     0.00000000   -0.00069792    0.00064004
     atom   13 type  1   force =     0.00000000    0.00073570   -0.00015188
     atom   14 type  1   force =     0.00000000   -0.00073586   -0.00015183
     atom   15 type  1   force =     0.00000000    0.00073549   -0.00015196
     atom   16 type  1   force =     0.00000000   -0.00073550   -0.00015194
     atom   17 type  1   force =    -0.00018314   -0.00029434   -0.00005525
     atom   18 type  1   force =     0.00018314    0.00029434   -0.00005524
     atom   19 type  1   force =    -0.00018314    0.00029434   -0.00005524
     atom   20 type  1   force =     0.00018314   -0.00029434   -0.00005525
     atom   21 type  1   force =    -0.00018310   -0.00029431   -0.00005526
     atom   22 type  1   force =     0.00018310    0.00029432   -0.00005526
     atom   23 type  1   force =    -0.00018310    0.00029432   -0.00005526
     atom   24 type  1   force =     0.00018310   -0.00029431   -0.00005526

     Total force =     0.003203     Total SCF correction =     0.000089


     Computing stress (Cartesian axis) and pressure

          total   stress  (Ry/bohr**3)                   (kbar)     P=      -20.36
  -0.00014568   0.00000000   0.00000000          -21.43        0.00        0.00
   0.00000000  -0.00013711   0.00000000            0.00      -20.17        0.00
   0.00000000   0.00000000  -0.00013238            0.00        0.00      -19.47

     Energy error            =      1.3E-04 Ry
     Gradient error          =      7.5E-04 Ry/Bohr

     number of scf cycles    =  10
     number of bfgs steps    =   9

     energy             old  =    -275.9853347870 Ry
     energy             new  =    -275.9854676374 Ry

     CASE: energy            _new < energy            _old

     new trust radius        =       0.0064316511 bohr
     new conv_thr            =       0.0000000010 Ry


ATOMIC_POSITIONS (crystal)
O                0.0000000000        0.6616487622        0.0622831063
O                0.0000000000        0.3383512549        0.5622830921
O                0.5000000000        0.1616487819        0.0622831157
O                0.5000000000        0.8383512131        0.5622830810
O                0.5000000000        0.8311670834        0.9386387416
O                0.5000000000        0.1688329152        0.4386387501
O                0.0000000000        0.3311670585        0.9386387475
O                0.0000000000        0.6688329368        0.4386387354
H                0.0000000000        0.6598863984        0.1894443045
H                0.0000000000        0.3401136134        0.6894443102
H                0.5000000000        0.1598863963        0.1894442962
H                0.5000000000        0.8401135904        0.6894442653
H                0.0000000000        0.5470533459        0.0255642618
H                0.0000000000        0.4529466562        0.5255642621
H                0.5000000000        0.0470533560        0.0255642591
H                0.5000000000        0.9529466403        0.5255642292
H                0.6651588395        0.7710174115        0.9810348129
H                0.3348411591        0.2289825892        0.4810348170
H                0.6651588409        0.2289825892        0.4810348170
H                0.3348411605        0.7710174115        0.9810348129
H                0.1651588238        0.2710173768        0.9810348213
H                0.8348411721        0.7289826210        0.4810348027
H                0.1651588279        0.7289826210        0.4810348027
H                0.8348411762        0.2710173768        0.9810348213



     Writing config-only to output data dir ./iceIh/iceIh.save/ :
     XML data file
     NEW-OLD atomic charge density approx. for the potential

     negative rho (up, down):  2.699E-06 0.000E+00

     total cpu time spent up to now is     1100.7 secs

     per-process dynamical memory:    80.0 Mb

     Self-consistent Calculation

     iteration #  1     ecut=    90.00 Ry     beta= 0.70
     Davidson diagonalization with overlap
     ethr =  1.00E-06,  avg # of iterations =  3.0

     Threshold (ethr) on eigenvalues was too large:
     Diagonalizing with lowered threshold

     Davidson diagonalization with overlap
     ethr =  3.84E-08,  avg # of iterations =  2.0

     negative rho (up, down):  2.723E-06 0.000E+00

     total cpu time spent up to now is     1123.8 secs

     total energy              =    -275.98548552 Ry
     estimated scf accuracy    <       0.00002776 Ry

     iteration #  2     ecut=    90.00 Ry     beta= 0.70
     Davidson diagonalization with overlap
     ethr =  4.34E-08,  avg # of iterations =  2.0

     negative rho (up, down):  2.734E-06 0.000E+00

     total cpu time spent up to now is     1134.0 secs

     total energy              =    -275.98548915 Ry
     estimated scf accuracy    <       0.00000296 Ry

     iteration #  3     ecut=    90.00 Ry     beta= 0.70
     Davidson diagonalization with overlap
     ethr =  4.63E-09,  avg # of iterations =  3.0

     negative rho (up, down):  2.739E-06 0.000E+00

     total cpu time spent up to now is     1146.1 secs

     total energy              =    -275.98548994 Ry
     estimated scf accuracy    <       0.00000075 Ry

     iteration #  4     ecut=    90.00 Ry     beta= 0.70
     Davidson diagonalization with overlap
     ethr =  1.18E-09,  avg # of iterations =  2.0

     negative rho (up, down):  2.741E-06 0.000E+00

     total cpu time spent up to now is     1156.0 secs

     total energy              =    -275.98549005 Ry
     estimated scf accuracy    <       0.00000002 Ry

     iteration #  5     ecut=    90.00 Ry     beta= 0.70
     Davidson diagonalization with overlap
     ethr =  3.64E-11,  avg # of iterations =  5.1

     negative rho (up, down):  2.742E-06 0.000E+00

     total cpu time spent up to now is     1172.7 secs

     total energy              =    -275.98549006 Ry
     estimated scf accuracy    <       0.00000004 Ry

     iteration #  6     ecut=    90.00 Ry     beta= 0.70
     Davidson diagonalization with overlap
     ethr =  3.64E-11,  avg # of iterations =  3.0

     negative rho (up, down):  2.742E-06 0.000E+00

     total cpu time spent up to now is     1184.7 secs

     End of self-consistent calculation

     Number of k-points >= 100: set verbosity='high' to print the bands.

     highest occupied level (ev):    -4.3050

!    total energy              =    -275.98549006 Ry
     estimated scf accuracy    <          4.0E-10 Ry

     The total energy is the sum of the following terms:
     one-electron contribution =    -259.19832206 Ry
     hartree contribution      =     148.31844580 Ry
     xc contribution           =     -67.45161682 Ry
     ewald contribution        =     -97.65399698 Ry

     convergence has been achieved in   6 iterations

     Forces acting on atoms (cartesian axes, Ry/au):

     atom    1 type  2   force =     0.00000000    0.00036729   -0.00006020
     atom    2 type  2   force =     0.00000000   -0.00036753   -0.00005985
     atom    3 type  2   force =     0.00000000    0.00036710   -0.00006045
     atom    4 type  2   force =     0.00000000   -0.00036712   -0.00006039
     atom    5 type  2   force =     0.00000000   -0.00010965   -0.00025570
     atom    6 type  2   force =     0.00000000    0.00010965   -0.00025570
     atom    7 type  2   force =     0.00000000   -0.00010968   -0.00025571
     atom    8 type  2   force =     0.00000000    0.00010970   -0.00025570
     atom    9 type  1   force =     0.00000000    0.00074607   -0.00005150
     atom   10 type  1   force =     0.00000000   -0.00074608   -0.00005176
     atom   11 type  1   force =     0.00000000    0.00074609   -0.00005129
     atom   12 type  1   force =     0.00000000   -0.00074608   -0.00005134
     atom   13 type  1   force =     0.00000000    0.00039607   -0.00014096
     atom   14 type  1   force =     0.00000000   -0.00039584   -0.00014105
     atom   15 type  1   force =     0.00000000    0.00039621   -0.00014094
     atom   16 type  1   force =     0.00000000   -0.00039620   -0.00014093
     atom   17 type  1   force =    -0.00012240   -0.00007304    0.00025419
     atom   18 type  1   force =     0.00012241    0.00007304    0.00025419
     atom   19 type  1   force =    -0.00012241    0.00007304    0.00025419
     atom   20 type  1   force =     0.00012240   -0.00007304    0.00025419
     atom   21 type  1   force =    -0.00012234   -0.00007302    0.00025418
     atom   22 type  1   force =     0.00012236    0.00007302    0.00025418
     atom   23 type  1   force =    -0.00012236    0.00007302    0.00025418
     atom   24 type  1   force =     0.00012234   -0.00007302    0.00025418

     Total force =     0.002118     Total SCF correction =     0.000040


     Computing stress (Cartesian axis) and pressure

          total   stress  (Ry/bohr**3)                   (kbar)     P=      -20.41
  -0.00014485   0.00000000   0.00000000          -21.31        0.00        0.00
   0.00000000  -0.00013625  -0.00000000            0.00      -20.04       -0.00
   0.00000000  -0.00000000  -0.00013514            0.00       -0.00      -19.88

     Energy error            =      2.2E-05 Ry
     Gradient error          =      7.5E-04 Ry/Bohr

     bfgs converged in  11 scf cycles and  10 bfgs steps
     (criteria: energy <  1.0E-04 Ry, force <  1.0E-03 Ry/Bohr)

     End of BFGS Geometry Optimization

     Final energy             =    -275.9854900639 Ry

     File ./iceIh/iceIh.bfgs deleted, as requested
Begin final coordinates

ATOMIC_POSITIONS (crystal)
O                0.0000000000        0.6616487622        0.0622831063
O                0.0000000000        0.3383512549        0.5622830921
O                0.5000000000        0.1616487819        0.0622831157
O                0.5000000000        0.8383512131        0.5622830810
O                0.5000000000        0.8311670834        0.9386387416
O                0.5000000000        0.1688329152        0.4386387501
O                0.0000000000        0.3311670585        0.9386387475
O                0.0000000000        0.6688329368        0.4386387354
H                0.0000000000        0.6598863984        0.1894443045
H                0.0000000000        0.3401136134        0.6894443102
H                0.5000000000        0.1598863963        0.1894442962
H                0.5000000000        0.8401135904        0.6894442653
H                0.0000000000        0.5470533459        0.0255642618
H                0.0000000000        0.4529466562        0.5255642621
H                0.5000000000        0.0470533560        0.0255642591
H                0.5000000000        0.9529466403        0.5255642292
H                0.6651588395        0.7710174115        0.9810348129
H                0.3348411591        0.2289825892        0.4810348170
H                0.6651588409        0.2289825892        0.4810348170
H                0.3348411605        0.7710174115        0.9810348129
H                0.1651588238        0.2710173768        0.9810348213
H                0.8348411721        0.7289826210        0.4810348027
H                0.1651588279        0.7289826210        0.4810348027
H                0.8348411762        0.2710173768        0.9810348213
End final coordinates



     Writing all to output data dir ./iceIh/iceIh.save/ :
     XML data file, charge density, pseudopotentials, collected wavefunctions

     init_run     :      5.49s CPU      5.61s WALL (       1 calls)
     electrons    :   1039.42s CPU   1057.01s WALL (      11 calls)
     update_pot   :      0.15s CPU      0.17s WALL (      10 calls)
     forces       :      8.36s CPU      8.38s WALL (      11 calls)
     stress       :    119.46s CPU    119.55s WALL (      11 calls)

     Called by init_run:
     wfcinit      :      4.81s CPU      4.88s WALL (       1 calls)
     potinit      :      0.03s CPU      0.04s WALL (       1 calls)
     hinit0       :      0.56s CPU      0.56s WALL (       1 calls)

     Called by electrons:
     c_bands      :    930.26s CPU    943.62s WALL (      85 calls)
     sum_band     :    107.40s CPU    108.28s WALL (      85 calls)
     v_of_rho     :      1.19s CPU      1.21s WALL (      92 calls)
     newd         :      0.24s CPU      0.25s WALL (      92 calls)
     mix_rho      :      0.19s CPU      0.19s WALL (      85 calls)

     Called by c_bands:
     init_us_2    :     15.49s CPU     15.97s WALL (   22195 calls)
     cegterg      :    893.15s CPU    900.22s WALL (    9775 calls)

     Called by *egterg:
     cdiaghg      :     65.55s CPU     65.80s WALL (   37704 calls)
     h_psi        :    666.98s CPU    673.27s WALL (   39429 calls)
     s_psi        :     29.41s CPU     29.55s WALL (   39429 calls)
     g_psi        :      2.77s CPU      2.78s WALL (   29539 calls)

     Called by h_psi:
     h_psi:calbec :     52.32s CPU     52.80s WALL (   39429 calls)
     vloc_psi     :    577.66s CPU    583.11s WALL (   39429 calls)
     add_vuspsi   :     31.07s CPU     31.32s WALL (   39429 calls)

     General routines
     calbec       :     69.78s CPU     70.39s WALL (   55529 calls)
     fft          :      1.16s CPU      1.18s WALL (    1114 calls)
     ffts         :      0.05s CPU      0.05s WALL (      85 calls)
     fftw         :    592.89s CPU    598.14s WALL ( 2340482 calls)

     Parallel routines

     PWSCF        :  19m37.36s CPU  20m 7.39s WALL


   This run was terminated on:  19:50:34   1Apr2026            

=------------------------------------------------------------------------------=
   JOB DONE.
=------------------------------------------------------------------------------=
