
     Program PWSCF v.7.3.1 starts on 20Mar2026 at 18:23:43 

     This program is part of the open-source Quantum ESPRESSO suite
     for quantum simulation of materials; please cite
         "P. Giannozzi et al., J. Phys.:Condens. Matter 21 395502 (2009);
         "P. Giannozzi et al., J. Phys.:Condens. Matter 29 465901 (2017);
         "P. Giannozzi et al., J. Chem. Phys. 152 154105 (2020);
          URL http://www.quantum-espresso.org", 
     in publications or presentations arising from this work. More details at
     http://www.quantum-espresso.org/quote

     Parallel version (MPI), running on   128 processors

     MPI processes distributed on     1 nodes
     238296 MiB available memory on the printing compute node when the environment starts

     Waiting for input...
     Reading input from standard input

     Current dimensions of program PWSCF are:
     Max number of different atomic species (ntypx) = 10
     Max number of k-points (npk) =  40000
     Max angular momentum in pseudopotentials (lmaxx) =  4
     Found identity + ( -0.5000 -0.5000  0.0000) symmetry
     This is a supercell, fractional translations are disabled

     K-points division:     npool     =       4
     R & G space division:  proc/nbgrp/npool/nimage =      32
     Subspace diagonalization in iterative solution of the eigenvalue problem:
     a serial algorithm will be used


     Parallelization info
     --------------------
     sticks:   dense  smooth     PW     G-vecs:    dense   smooth      PW
     Min          96      96     26                 4998     4998     728
     Max          97      97     27                 5005     5005     733
     Sum        3081    3081    863               160005   160005   23439

     Using Slab Decomposition



     bravais-lattice index     =            8
     lattice parameter (alat)  =       7.8950  a.u.
     unit-cell volume          =    1387.4413 (a.u.)^3
     number of atoms/cell      =           24
     number of atomic types    =            2
     number of electrons       =        64.00
     number of Kohn-Sham states=           32
     kinetic-energy cutoff     =      90.0000  Ry
     charge density cutoff     =     360.0000  Ry
     scf convergence threshold =      1.0E-07
     mixing beta               =       0.7000
     number of iterations used =            8  plain     mixing
     Exchange-correlation=  SLA  PW   PBE  PBE
                           (   1   4   3   4   0   0   0)

     celldm(1)=   7.895003  celldm(2)=   1.732119  celldm(3)=   1.627721
     celldm(4)=   0.000000  celldm(5)=   0.000000  celldm(6)=   0.000000

     crystal axes: (cart. coord. in units of alat)
               a(1) = (   1.000000   0.000000   0.000000 )  
               a(2) = (   0.000000   1.732119   0.000000 )  
               a(3) = (   0.000000   0.000000   1.627721 )  

     reciprocal axes: (cart. coord. in units 2 pi/alat)
               b(1) = (  1.000000  0.000000  0.000000 )  
               b(2) = (  0.000000  0.577328  0.000000 )  
               b(3) = (  0.000000  0.000000  0.614356 )  


     PseudoPot. # 1 for H  read from file:
     ./H.pbe-van_ak.UPF
     MD5 check sum: 077eb6d537518a38cb46c6de387227b7
     Pseudo is Ultrasoft, Zval =  1.0
     Generated by new atomic code, or converted to UPF format
     Using radial grid of  615 points,  1 beta functions with: 
                l(1) =   0
     Q(r) pseudized with  8 coefficients,  rinner =    0.800

     PseudoPot. # 2 for O  read from file:
     ./O.pbe-van_ak.UPF
     MD5 check sum: 78c19812648e8988a0fe644b0f25305e
     Pseudo is Ultrasoft, Zval =  6.0
     Generated by new atomic code, or converted to UPF format
     Using radial grid of  737 points,  4 beta functions with: 
                l(1) =   0
                l(2) =   0
                l(3) =   1
                l(4) =   1
     Q(r) pseudized with  8 coefficients,  rinner =    0.800   0.800   0.800


     atomic species   valence    mass     pseudopotential
     H                 1.00     1.00800     H ( 1.00)
     O                 6.00    16.00000     O ( 1.00)

      2 Sym. Ops. (no inversion) found



   Cartesian axes

     site n.     atom                  positions (alat units)
         1        O      tau(   1) = (   0.0000000   1.1515127   0.1027092  )
         2        O      tau(   2) = (   0.0000000   0.5806063   0.9165697  )
         3        O      tau(   3) = (   0.5000000   0.2854532   0.1027092  )
         4        O      tau(   4) = (   0.5000000   1.4466659   0.9165697  )
         5        O      tau(   5) = (   0.5000000   1.4298643   1.5250118  )
         6        O      tau(   6) = (   0.5000000   0.3022548   0.7111513  )
         7        O      tau(   7) = (   0.0000000   0.5638048   1.5250118  )
         8        O      tau(   8) = (   0.0000000   1.1683143   0.7111513  )
         9        H      tau(   9) = (   0.0000000   1.1494343   0.3195216  )
        10        H      tau(  10) = (   0.0000000   0.5826848   1.1333822  )
        11        H      tau(  11) = (   0.5000000   0.2833747   0.3195216  )
        12        H      tau(  12) = (   0.5000000   1.4487443   1.1333822  )
        13        H      tau(  13) = (   0.0000000   0.9289355   0.0297873  )
        14        H      tau(  14) = (   0.0000000   0.8031836   0.8436478  )
        15        H      tau(  15) = (   0.5000000   0.0628759   0.0297873  )
        16        H      tau(  16) = (   0.5000000   1.6692431   0.8436478  )
        17        H      tau(  17) = (   0.6766000   1.3420459   1.5979337  )
        18        H      tau(  18) = (   0.3234000   0.3900732   0.7840732  )
        19        H      tau(  19) = (   0.6766000   0.3900732   0.7840732  )
        20        H      tau(  20) = (   0.3234000   1.3420459   1.5979337  )
        21        H      tau(  21) = (   0.1766000   0.4759863   1.5979337  )
        22        H      tau(  22) = (   0.8234000   1.2561327   0.7840732  )
        23        H      tau(  23) = (   0.1766000   1.2561327   0.7840732  )
        24        H      tau(  24) = (   0.8234000   0.4759863   1.5979337  )

     number of k points=   460

     Number of k-points >= 100: set verbosity='high' to print them.

     Dense  grid:   160005 G-vectors     FFT dimensions: (  48,  90,  80)

     Estimated max dynamical RAM per process >      42.21 MB

     Estimated total dynamical RAM >       5.16 GB

     Initial potential from superposition of free atoms

     starting charge      63.9998, renormalised to      64.0000
     Starting wfcs are   48 randomized atomic wfcs

     total cpu time spent up to now is        4.3 secs

     per-process dynamical memory:    49.8 Mb

     Self-consistent Calculation

     iteration #  1     ecut=    90.00 Ry     beta= 0.70
     Davidson diagonalization with overlap
     ethr =  1.00E-02,  avg # of iterations =  2.0

     total cpu time spent up to now is       12.3 secs

     total energy              =    -274.43145388 Ry
     estimated scf accuracy    <       3.21496637 Ry

     iteration #  2     ecut=    90.00 Ry     beta= 0.70
     Davidson diagonalization with overlap
     ethr =  5.02E-03,  avg # of iterations =  3.0

     total cpu time spent up to now is       21.7 secs

     total energy              =    -275.50444328 Ry
     estimated scf accuracy    <       1.15562319 Ry

     iteration #  3     ecut=    90.00 Ry     beta= 0.70
     Davidson diagonalization with overlap
     ethr =  1.81E-03,  avg # of iterations =  2.0

     total cpu time spent up to now is       28.9 secs

     total energy              =    -275.61759559 Ry
     estimated scf accuracy    <       0.05404010 Ry

     iteration #  4     ecut=    90.00 Ry     beta= 0.70
     Davidson diagonalization with overlap
     ethr =  8.44E-05,  avg # of iterations =  4.0

     total cpu time spent up to now is       39.2 secs

     total energy              =    -275.65242012 Ry
     estimated scf accuracy    <       0.05071103 Ry

     iteration #  5     ecut=    90.00 Ry     beta= 0.70
     Davidson diagonalization with overlap
     ethr =  7.92E-05,  avg # of iterations =  2.0

     total cpu time spent up to now is       45.8 secs

     total energy              =    -275.65467815 Ry
     estimated scf accuracy    <       0.00822140 Ry

     iteration #  6     ecut=    90.00 Ry     beta= 0.70
     Davidson diagonalization with overlap
     ethr =  1.28E-05,  avg # of iterations =  2.0

     total cpu time spent up to now is       53.3 secs

     total energy              =    -275.65539264 Ry
     estimated scf accuracy    <       0.00169802 Ry

     iteration #  7     ecut=    90.00 Ry     beta= 0.70
     Davidson diagonalization with overlap
     ethr =  2.65E-06,  avg # of iterations =  2.0

     total cpu time spent up to now is       60.8 secs

     total energy              =    -275.65555274 Ry
     estimated scf accuracy    <       0.00021799 Ry

     iteration #  8     ecut=    90.00 Ry     beta= 0.70
     Davidson diagonalization with overlap
     ethr =  3.41E-07,  avg # of iterations =  3.0

     total cpu time spent up to now is       69.5 secs

     total energy              =    -275.65562496 Ry
     estimated scf accuracy    <       0.00000320 Ry

     iteration #  9     ecut=    90.00 Ry     beta= 0.70
     Davidson diagonalization with overlap
     ethr =  5.00E-09,  avg # of iterations =  4.3

     total cpu time spent up to now is       80.8 secs

     total energy              =    -275.65562857 Ry
     estimated scf accuracy    <       0.00000096 Ry

     iteration # 10     ecut=    90.00 Ry     beta= 0.70
     Davidson diagonalization with overlap
     ethr =  1.50E-09,  avg # of iterations =  2.8

     total cpu time spent up to now is       90.6 secs

     total energy              =    -275.65562880 Ry
     estimated scf accuracy    <       0.00000021 Ry

     iteration # 11     ecut=    90.00 Ry     beta= 0.70
     Davidson diagonalization with overlap
     ethr =  3.33E-10,  avg # of iterations =  2.6

     total cpu time spent up to now is       98.5 secs

     End of self-consistent calculation

     Number of k-points >= 100: set verbosity='high' to print the bands.

     highest occupied level (ev):    -2.4380

!    total energy              =    -275.65562883 Ry
     estimated scf accuracy    <          1.8E-09 Ry

     The total energy is the sum of the following terms:
     one-electron contribution =    -224.30119261 Ry
     hartree contribution      =     134.68779950 Ry
     xc contribution           =     -69.36173127 Ry
     ewald contribution        =    -116.68050446 Ry

     convergence has been achieved in  11 iterations

     Forces acting on atoms (cartesian axes, Ry/au):

     atom    1 type  2   force =     0.00000000    0.03079140   -0.19064863
     atom    2 type  2   force =     0.00000000   -0.03079104   -0.19064715
     atom    3 type  2   force =     0.00000000    0.03079170   -0.19064895
     atom    4 type  2   force =     0.00000000   -0.03079196   -0.19064793
     atom    5 type  2   force =     0.00000000    0.26836850   -0.20412200
     atom    6 type  2   force =     0.00000000   -0.26836835   -0.20412197
     atom    7 type  2   force =     0.00000000    0.26836847   -0.20412215
     atom    8 type  2   force =     0.00000000   -0.26836830   -0.20412195
     atom    9 type  1   force =     0.00000000    0.00109920    0.20121957
     atom   10 type  1   force =     0.00000000   -0.00109920    0.20121854
     atom   11 type  1   force =     0.00000000    0.00109923    0.20121904
     atom   12 type  1   force =     0.00000000   -0.00109926    0.20121810
     atom   13 type  1   force =     0.00000000   -0.03578275   -0.01704015
     atom   14 type  1   force =     0.00000000    0.03578299   -0.01704024
     atom   15 type  1   force =     0.00000000   -0.03578259   -0.01704010
     atom   16 type  1   force =     0.00000000    0.03578248   -0.01704005
     atom   17 type  1   force =     0.24038579   -0.13363033    0.10529580
     atom   18 type  1   force =    -0.24038557    0.13363025    0.10529578
     atom   19 type  1   force =     0.24038557    0.13363025    0.10529578
     atom   20 type  1   force =    -0.24038579   -0.13363033    0.10529580
     atom   21 type  1   force =     0.24038576   -0.13363026    0.10529574
     atom   22 type  1   force =    -0.24038555    0.13363008    0.10529568
     atom   23 type  1   force =     0.24038555    0.13363008    0.10529568
     atom   24 type  1   force =    -0.24038576   -0.13363026    0.10529574

     Total force =     1.210789     Total SCF correction =     0.000072


     Computing stress (Cartesian axis) and pressure

          total   stress  (Ry/bohr**3)                   (kbar)     P=      256.36
   0.00236781   0.00000000   0.00000000          348.32        0.00        0.00
   0.00000000   0.00103225  -0.00000000            0.00      151.85       -0.00
   0.00000000  -0.00000000   0.00182805            0.00       -0.00      268.92


     Writing all to output data dir ./iceIh/iceIh.save/ :
     XML data file, charge density, pseudopotentials, collected wavefunctions

     init_run     :      3.93s CPU      4.05s WALL (       1 calls)
     electrons    :     92.68s CPU     94.29s WALL (       1 calls)
     forces       :      0.47s CPU      0.49s WALL (       1 calls)
     stress       :      7.03s CPU      7.04s WALL (       1 calls)

     Called by init_run:
     wfcinit      :      3.44s CPU      3.50s WALL (       1 calls)
     potinit      :      0.02s CPU      0.04s WALL (       1 calls)
     hinit0       :      0.41s CPU      0.42s WALL (       1 calls)

     Called by electrons:
     c_bands      :     82.46s CPU     83.84s WALL (      11 calls)
     sum_band     :     10.06s CPU     10.16s WALL (      11 calls)
     v_of_rho     :      0.11s CPU      0.12s WALL (      12 calls)
     newd         :      0.02s CPU      0.03s WALL (      12 calls)
     mix_rho      :      0.02s CPU      0.02s WALL (      11 calls)

     Called by c_bands:
     init_us_2    :      1.24s CPU      1.28s WALL (    2875 calls)
     cegterg      :     79.24s CPU     80.01s WALL (    1265 calls)

     Called by *egterg:
     cdiaghg      :      7.95s CPU      7.99s WALL (    4744 calls)
     h_psi        :     61.53s CPU     62.24s WALL (    4859 calls)
     s_psi        :      2.43s CPU      2.45s WALL (    4859 calls)
     g_psi        :      0.21s CPU      0.21s WALL (    3479 calls)

     Called by h_psi:
     h_psi:calbec :      3.73s CPU      3.76s WALL (    4859 calls)
     vloc_psi     :     54.84s CPU     55.48s WALL (    4859 calls)
     add_vuspsi   :      2.55s CPU      2.58s WALL (    4859 calls)

     General routines
     calbec       :      5.08s CPU      5.13s WALL (    6699 calls)
     fft          :      0.46s CPU      0.46s WALL (     140 calls)
     ffts         :      0.00s CPU      0.00s WALL (      11 calls)
     fftw         :     57.51s CPU     58.16s WALL (  290052 calls)

     Parallel routines

     PWSCF        :   1m47.49s CPU   1m55.60s WALL


   This run was terminated on:  18:25:39  20Mar2026            

=------------------------------------------------------------------------------=
   JOB DONE.
=------------------------------------------------------------------------------=
