
     Program PWSCF v.7.3.1 starts on 31Mar2026 at 16:54: 4 

     This program is part of the open-source Quantum ESPRESSO suite
     for quantum simulation of materials; please cite
         "P. Giannozzi et al., J. Phys.:Condens. Matter 21 395502 (2009);
         "P. Giannozzi et al., J. Phys.:Condens. Matter 29 465901 (2017);
         "P. Giannozzi et al., J. Chem. Phys. 152 154105 (2020);
          URL http://www.quantum-espresso.org", 
     in publications or presentations arising from this work. More details at
     http://www.quantum-espresso.org/quote

     Parallel version (MPI), running on   128 processors

     MPI processes distributed on     1 nodes
     501193 MiB available memory on the printing compute node when the environment starts

     Waiting for input...
     Reading input from standard input

     Current dimensions of program PWSCF are:
     Max number of different atomic species (ntypx) = 10
     Max number of k-points (npk) =  40000
     Max angular momentum in pseudopotentials (lmaxx) =  4

     File ./iceIh/iceIh.update deleted, as requested

     File ./iceIh/iceIh.bfgs deleted, as requested
     Found identity + ( -0.5000 -0.5000  0.0000) symmetry
     This is a supercell, fractional translations are disabled

     K-points division:     npool     =       4
     R & G space division:  proc/nbgrp/npool/nimage =      32
     Subspace diagonalization in iterative solution of the eigenvalue problem:
     a serial algorithm will be used


     Parallelization info
     --------------------
     sticks:   dense  smooth     PW     G-vecs:    dense   smooth      PW
     Min          96      96     26                 4998     4998     728
     Max          97      97     27                 5005     5005     733
     Sum        3081    3081    863               160005   160005   23439

     Using Slab Decomposition



     bravais-lattice index     =            8
     lattice parameter (alat)  =       7.8950  a.u.
     unit-cell volume          =    1387.4413 (a.u.)^3
     number of atoms/cell      =           24
     number of atomic types    =            2
     number of electrons       =        64.00
     number of Kohn-Sham states=           32
     kinetic-energy cutoff     =      90.0000  Ry
     charge density cutoff     =     360.0000  Ry
     scf convergence threshold =      1.0E-07
     mixing beta               =       0.7000
     number of iterations used =            8  plain     mixing
     energy convergence thresh.=      1.0E-04
     force convergence thresh. =      1.0E-04
     Exchange-correlation=  SLA  PW   PBE  PBE
                           (   1   4   3   4   0   0   0)
     nstep                     =           50


     celldm(1)=   7.895003  celldm(2)=   1.732119  celldm(3)=   1.627721
     celldm(4)=   0.000000  celldm(5)=   0.000000  celldm(6)=   0.000000

     crystal axes: (cart. coord. in units of alat)
               a(1) = (   1.000000   0.000000   0.000000 )  
               a(2) = (   0.000000   1.732119   0.000000 )  
               a(3) = (   0.000000   0.000000   1.627721 )  

     reciprocal axes: (cart. coord. in units 2 pi/alat)
               b(1) = (  1.000000  0.000000  0.000000 )  
               b(2) = (  0.000000  0.577328  0.000000 )  
               b(3) = (  0.000000  0.000000  0.614356 )  


     PseudoPot. # 1 for H  read from file:
     ./H.pbe-van_ak.UPF
     MD5 check sum: 077eb6d537518a38cb46c6de387227b7
     Pseudo is Ultrasoft, Zval =  1.0
     Generated by new atomic code, or converted to UPF format
     Using radial grid of  615 points,  1 beta functions with: 
                l(1) =   0
     Q(r) pseudized with  8 coefficients,  rinner =    0.800

     PseudoPot. # 2 for O  read from file:
     ./O.pbe-van_ak.UPF
     MD5 check sum: 78c19812648e8988a0fe644b0f25305e
     Pseudo is Ultrasoft, Zval =  6.0
     Generated by new atomic code, or converted to UPF format
     Using radial grid of  737 points,  4 beta functions with: 
                l(1) =   0
                l(2) =   0
                l(3) =   1
                l(4) =   1
     Q(r) pseudized with  8 coefficients,  rinner =    0.800   0.800   0.800


     atomic species   valence    mass     pseudopotential
     H                 1.00     1.00800     H ( 1.00)
     O                 6.00    16.00000     O ( 1.00)

      2 Sym. Ops. (no inversion) found



   Cartesian axes

     site n.     atom                  positions (alat units)
         1        O      tau(   1) = (   0.0000000   1.1515127   0.1027092  )
         2        O      tau(   2) = (   0.0000000   0.5806063   0.9165697  )
         3        O      tau(   3) = (   0.5000000   0.2854532   0.1027092  )
         4        O      tau(   4) = (   0.5000000   1.4466659   0.9165697  )
         5        O      tau(   5) = (   0.5000000   1.4298643   1.5250118  )
         6        O      tau(   6) = (   0.5000000   0.3022548   0.7111513  )
         7        O      tau(   7) = (   0.0000000   0.5638048   1.5250118  )
         8        O      tau(   8) = (   0.0000000   1.1683143   0.7111513  )
         9        H      tau(   9) = (   0.0000000   1.1494343   0.3195216  )
        10        H      tau(  10) = (   0.0000000   0.5826848   1.1333822  )
        11        H      tau(  11) = (   0.5000000   0.2833747   0.3195216  )
        12        H      tau(  12) = (   0.5000000   1.4487443   1.1333822  )
        13        H      tau(  13) = (   0.0000000   0.9289355   0.0297873  )
        14        H      tau(  14) = (   0.0000000   0.8031836   0.8436478  )
        15        H      tau(  15) = (   0.5000000   0.0628759   0.0297873  )
        16        H      tau(  16) = (   0.5000000   1.6692431   0.8436478  )
        17        H      tau(  17) = (   0.6766000   1.3420459   1.5979337  )
        18        H      tau(  18) = (   0.3234000   0.3900732   0.7840732  )
        19        H      tau(  19) = (   0.6766000   0.3900732   0.7840732  )
        20        H      tau(  20) = (   0.3234000   1.3420459   1.5979337  )
        21        H      tau(  21) = (   0.1766000   0.4759863   1.5979337  )
        22        H      tau(  22) = (   0.8234000   1.2561327   0.7840732  )
        23        H      tau(  23) = (   0.1766000   1.2561327   0.7840732  )
        24        H      tau(  24) = (   0.8234000   0.4759863   1.5979337  )

     number of k points=   460

     Number of k-points >= 100: set verbosity='high' to print them.

     Dense  grid:   160005 G-vectors     FFT dimensions: (  48,  90,  80)

     Estimated max dynamical RAM per process >      42.21 MB

     Estimated total dynamical RAM >       5.16 GB

     Initial potential from superposition of free atoms

     starting charge      63.9998, renormalised to      64.0000
     Starting wfcs are   48 randomized atomic wfcs

     total cpu time spent up to now is       11.9 secs

     per-process dynamical memory:    49.7 Mb

     Self-consistent Calculation

     iteration #  1     ecut=    90.00 Ry     beta= 0.70
     Davidson diagonalization with overlap
     ethr =  1.00E-02,  avg # of iterations =  2.0

     total cpu time spent up to now is       19.9 secs

     total energy              =    -274.43145388 Ry
     estimated scf accuracy    <       3.21496637 Ry

     iteration #  2     ecut=    90.00 Ry     beta= 0.70
     Davidson diagonalization with overlap
     ethr =  5.02E-03,  avg # of iterations =  3.0

     total cpu time spent up to now is       29.5 secs

     total energy              =    -275.50444328 Ry
     estimated scf accuracy    <       1.15562319 Ry

     iteration #  3     ecut=    90.00 Ry     beta= 0.70
     Davidson diagonalization with overlap
     ethr =  1.81E-03,  avg # of iterations =  2.0

     total cpu time spent up to now is       36.6 secs

     total energy              =    -275.61759559 Ry
     estimated scf accuracy    <       0.05404010 Ry

     iteration #  4     ecut=    90.00 Ry     beta= 0.70
     Davidson diagonalization with overlap
     ethr =  8.44E-05,  avg # of iterations =  4.0

     total cpu time spent up to now is       47.0 secs

     total energy              =    -275.65242012 Ry
     estimated scf accuracy    <       0.05071103 Ry

     iteration #  5     ecut=    90.00 Ry     beta= 0.70
     Davidson diagonalization with overlap
     ethr =  7.92E-05,  avg # of iterations =  2.0

     total cpu time spent up to now is       53.7 secs

     total energy              =    -275.65467815 Ry
     estimated scf accuracy    <       0.00822140 Ry

     iteration #  6     ecut=    90.00 Ry     beta= 0.70
     Davidson diagonalization with overlap
     ethr =  1.28E-05,  avg # of iterations =  2.0

     total cpu time spent up to now is       61.3 secs

     total energy              =    -275.65539264 Ry
     estimated scf accuracy    <       0.00169802 Ry

     iteration #  7     ecut=    90.00 Ry     beta= 0.70
     Davidson diagonalization with overlap
     ethr =  2.65E-06,  avg # of iterations =  2.0

     total cpu time spent up to now is       68.8 secs

     total energy              =    -275.65555274 Ry
     estimated scf accuracy    <       0.00021799 Ry

     iteration #  8     ecut=    90.00 Ry     beta= 0.70
     Davidson diagonalization with overlap
     ethr =  3.41E-07,  avg # of iterations =  3.0

     total cpu time spent up to now is       77.6 secs

     total energy              =    -275.65562496 Ry
     estimated scf accuracy    <       0.00000320 Ry

     iteration #  9     ecut=    90.00 Ry     beta= 0.70
     Davidson diagonalization with overlap
     ethr =  5.00E-09,  avg # of iterations =  4.3

     total cpu time spent up to now is       88.9 secs

     total energy              =    -275.65562857 Ry
     estimated scf accuracy    <       0.00000096 Ry

     iteration # 10     ecut=    90.00 Ry     beta= 0.70
     Davidson diagonalization with overlap
     ethr =  1.50E-09,  avg # of iterations =  2.8

     total cpu time spent up to now is       98.0 secs

     total energy              =    -275.65562880 Ry
     estimated scf accuracy    <       0.00000021 Ry

     iteration # 11     ecut=    90.00 Ry     beta= 0.70
     Davidson diagonalization with overlap
     ethr =  3.33E-10,  avg # of iterations =  2.6

     total cpu time spent up to now is      105.9 secs

     End of self-consistent calculation

     Number of k-points >= 100: set verbosity='high' to print the bands.

     highest occupied level (ev):    -2.4380

!    total energy              =    -275.65562883 Ry
     estimated scf accuracy    <          1.8E-09 Ry

     The total energy is the sum of the following terms:
     one-electron contribution =    -224.30119261 Ry
     hartree contribution      =     134.68779950 Ry
     xc contribution           =     -69.36173127 Ry
     ewald contribution        =    -116.68050446 Ry

     convergence has been achieved in  11 iterations

     Forces acting on atoms (cartesian axes, Ry/au):

     atom    1 type  2   force =     0.00000000    0.03079140   -0.19064863
     atom    2 type  2   force =     0.00000000   -0.03079104   -0.19064715
     atom    3 type  2   force =     0.00000000    0.03079170   -0.19064895
     atom    4 type  2   force =     0.00000000   -0.03079196   -0.19064793
     atom    5 type  2   force =     0.00000000    0.26836850   -0.20412200
     atom    6 type  2   force =     0.00000000   -0.26836835   -0.20412197
     atom    7 type  2   force =     0.00000000    0.26836847   -0.20412215
     atom    8 type  2   force =     0.00000000   -0.26836830   -0.20412195
     atom    9 type  1   force =     0.00000000    0.00109920    0.20121957
     atom   10 type  1   force =     0.00000000   -0.00109920    0.20121854
     atom   11 type  1   force =     0.00000000    0.00109923    0.20121904
     atom   12 type  1   force =     0.00000000   -0.00109926    0.20121810
     atom   13 type  1   force =     0.00000000   -0.03578275   -0.01704015
     atom   14 type  1   force =     0.00000000    0.03578299   -0.01704024
     atom   15 type  1   force =     0.00000000   -0.03578259   -0.01704010
     atom   16 type  1   force =     0.00000000    0.03578248   -0.01704005
     atom   17 type  1   force =     0.24038579   -0.13363033    0.10529580
     atom   18 type  1   force =    -0.24038557    0.13363025    0.10529578
     atom   19 type  1   force =     0.24038557    0.13363025    0.10529578
     atom   20 type  1   force =    -0.24038579   -0.13363033    0.10529580
     atom   21 type  1   force =     0.24038576   -0.13363026    0.10529574
     atom   22 type  1   force =    -0.24038555    0.13363008    0.10529568
     atom   23 type  1   force =     0.24038555    0.13363008    0.10529568
     atom   24 type  1   force =    -0.24038576   -0.13363026    0.10529574

     Total force =     1.210789     Total SCF correction =     0.000072


     Computing stress (Cartesian axis) and pressure

          total   stress  (Ry/bohr**3)                   (kbar)     P=      256.36
   0.00236781   0.00000000   0.00000000          348.32        0.00        0.00
   0.00000000   0.00103225  -0.00000000            0.00      151.85       -0.00
   0.00000000  -0.00000000   0.00182805            0.00       -0.00      268.92


     BFGS Geometry Optimization
     Energy error            =      0.0E+00 Ry
     Gradient error          =      2.7E-01 Ry/Bohr

     number of scf cycles    =   1
     number of bfgs steps    =   0

     energy             new  =    -275.6556288349 Ry

     new trust radius        =       0.3371757484 bohr
     new conv_thr            =       0.0000001000 Ry


ATOMIC_POSITIONS (crystal)
O                0.0000000000        0.6670516304        0.0482645297
O                0.0000000000        0.3329483962        0.5482646213
O                0.5000000000        0.1670516526        0.0482645043
O                0.5000000000        0.8329483287        0.5482645607
O                0.5000000000        0.8451246418        0.9210161058
O                0.5000000000        0.1548753694        0.4210160778
O                0.0000000000        0.3451246394        0.9210160938
O                0.0000000000        0.6548753728        0.4210160797
H                0.0000000000        0.6636804079        0.2119580596
H                0.0000000000        0.3363195920        0.7119580097
H                0.5000000000        0.1636804102        0.2119580186
H                0.5000000000        0.8363195880        0.7119579752
H                0.0000000000        0.5336833656        0.0169740087
H                0.0000000000        0.4663166515        0.5169739975
H                0.5000000000        0.0336833775        0.0169740124
H                0.5000000000        0.9663166142        0.5169740118
H                0.7070478195        0.7650281933        0.9898936791
H                0.2929522087        0.2349718010        0.4898936771
H                0.7070477913        0.2349718010        0.4898936771
H                0.2929521805        0.7650281933        0.9898936791
H                0.2070478153        0.2650281982        0.9898936744
H                0.7929522114        0.7349717885        0.4898936691
H                0.2070477886        0.7349717885        0.4898936691
H                0.7929521847        0.2650281982        0.9898936744



     Writing config-only to output data dir ./iceIh/iceIh.save/ :
     XML data file
     NEW-OLD atomic charge density approx. for the potential

     total cpu time spent up to now is      113.8 secs

     per-process dynamical memory:    55.4 Mb

     Self-consistent Calculation

     iteration #  1     ecut=    90.00 Ry     beta= 0.70
     Davidson diagonalization with overlap
     ethr =  1.00E-06,  avg # of iterations = 12.0

     total cpu time spent up to now is      142.7 secs

     total energy              =    -275.78554569 Ry
     estimated scf accuracy    <       0.30179870 Ry

     iteration #  2     ecut=    90.00 Ry     beta= 0.70
     Davidson diagonalization with overlap
     ethr =  4.72E-04,  avg # of iterations =  2.3

     total cpu time spent up to now is      151.3 secs

     total energy              =    -275.85867377 Ry
     estimated scf accuracy    <       0.04837711 Ry

     iteration #  3     ecut=    90.00 Ry     beta= 0.70
     Davidson diagonalization with overlap
     ethr =  7.56E-05,  avg # of iterations =  2.3

     total cpu time spent up to now is      159.4 secs

     total energy              =    -275.86639298 Ry
     estimated scf accuracy    <       0.00205958 Ry

     iteration #  4     ecut=    90.00 Ry     beta= 0.70
     Davidson diagonalization with overlap
     ethr =  3.22E-06,  avg # of iterations =  2.9

     total cpu time spent up to now is      168.2 secs

     total energy              =    -275.86691253 Ry
     estimated scf accuracy    <       0.00038892 Ry

     iteration #  5     ecut=    90.00 Ry     beta= 0.70
     Davidson diagonalization with overlap
     ethr =  6.08E-07,  avg # of iterations =  2.3

     total cpu time spent up to now is      176.4 secs

     total energy              =    -275.86697558 Ry
     estimated scf accuracy    <       0.00006996 Ry

     iteration #  6     ecut=    90.00 Ry     beta= 0.70
     Davidson diagonalization with overlap
     ethr =  1.09E-07,  avg # of iterations =  3.0

     total cpu time spent up to now is      185.5 secs

     total energy              =    -275.86698898 Ry
     estimated scf accuracy    <       0.00001786 Ry

     iteration #  7     ecut=    90.00 Ry     beta= 0.70
     Davidson diagonalization with overlap
     ethr =  2.79E-08,  avg # of iterations =  3.0

     total cpu time spent up to now is      194.6 secs

     total energy              =    -275.86699458 Ry
     estimated scf accuracy    <       0.00000222 Ry

     iteration #  8     ecut=    90.00 Ry     beta= 0.70
     Davidson diagonalization with overlap
     ethr =  3.47E-09,  avg # of iterations =  2.0

     total cpu time spent up to now is      201.4 secs

     total energy              =    -275.86699444 Ry
     estimated scf accuracy    <       0.00000053 Ry

     iteration #  9     ecut=    90.00 Ry     beta= 0.70
     Davidson diagonalization with overlap
     ethr =  8.31E-10,  avg # of iterations =  2.3

     total cpu time spent up to now is      210.1 secs

     End of self-consistent calculation

     Number of k-points >= 100: set verbosity='high' to print the bands.

     highest occupied level (ev):    -1.8574

!    total energy              =    -275.86699460 Ry
     estimated scf accuracy    <       0.00000002 Ry

     The total energy is the sum of the following terms:
     one-electron contribution =    -205.88402266 Ry
     hartree contribution      =     126.47582216 Ry
     xc contribution           =     -67.51906132 Ry
     ewald contribution        =    -128.93973277 Ry

     convergence has been achieved in   9 iterations

     Forces acting on atoms (cartesian axes, Ry/au):

     atom    1 type  2   force =     0.00000000    0.07215185    0.08242559
     atom    2 type  2   force =     0.00000000   -0.07215177    0.08242485
     atom    3 type  2   force =     0.00000000    0.07215174    0.08242563
     atom    4 type  2   force =     0.00000000   -0.07215139    0.08242510
     atom    5 type  2   force =     0.00000000   -0.10382909    0.07932692
     atom    6 type  2   force =     0.00000000    0.10382904    0.07932696
     atom    7 type  2   force =     0.00000000   -0.10382911    0.07932703
     atom    8 type  2   force =     0.00000000    0.10382899    0.07932686
     atom    9 type  1   force =     0.00000000    0.01215862   -0.02436003
     atom   10 type  1   force =     0.00000000   -0.01215853   -0.02435959
     atom   11 type  1   force =     0.00000000    0.01215867   -0.02436001
     atom   12 type  1   force =     0.00000000   -0.01215867   -0.02435963
     atom   13 type  1   force =     0.00000000   -0.04865099   -0.04019458
     atom   14 type  1   force =     0.00000000    0.04865081   -0.04019446
     atom   15 type  1   force =     0.00000000   -0.04865098   -0.04019461
     atom   16 type  1   force =     0.00000000    0.04865068   -0.04019453
     atom   17 type  1   force =    -0.03877498    0.03552360   -0.04859894
     atom   18 type  1   force =     0.03877494   -0.03552358   -0.04859893
     atom   19 type  1   force =    -0.03877494   -0.03552358   -0.04859893
     atom   20 type  1   force =     0.03877498    0.03552360   -0.04859894
     atom   21 type  1   force =    -0.03877499    0.03552361   -0.04859896
     atom   22 type  1   force =     0.03877492   -0.03552357   -0.04859893
     atom   23 type  1   force =    -0.03877492   -0.03552357   -0.04859893
     atom   24 type  1   force =     0.03877499    0.03552361   -0.04859896

     Total force =     0.419768     Total SCF correction =     0.000364


     Computing stress (Cartesian axis) and pressure

          total   stress  (Ry/bohr**3)                   (kbar)     P=      -26.66
  -0.00050743   0.00000000   0.00000000          -74.65        0.00        0.00
   0.00000000   0.00030944   0.00000000            0.00       45.52        0.00
   0.00000000   0.00000000  -0.00034568            0.00        0.00      -50.85

     Energy error            =      2.1E-01 Ry
     Gradient error          =      1.0E-01 Ry/Bohr

     number of scf cycles    =   2
     number of bfgs steps    =   1

     energy             old  =    -275.6556288349 Ry
     energy             new  =    -275.8669946035 Ry

     CASE: energy            _new < energy            _old

     new trust radius        =       0.0929248313 bohr
     new conv_thr            =       0.0000001000 Ry


ATOMIC_POSITIONS (crystal)
O                0.0000000000        0.6712785697        0.0528773123
O                0.0000000000        0.3287214624        0.5528773616
O                0.5000000000        0.1712785862        0.0528772886
O                0.5000000000        0.8287214150        0.5528773144
O                0.5000000000        0.8397259968        0.9254074240
O                0.5000000000        0.1602740123        0.4254073987
O                0.0000000000        0.3397259930        0.9254074188
O                0.0000000000        0.6602740128        0.4254073943
H                0.0000000000        0.6643837606        0.2109320836
H                0.0000000000        0.3356162443        0.7109320585
H                0.5000000000        0.1643837658        0.2109320425
H                0.5000000000        0.8356162326        0.7109320200
H                0.0000000000        0.5308003373        0.0144684876
H                0.0000000000        0.4691996696        0.5144684832
H                0.5000000000        0.0308003505        0.0144684895
H                0.5000000000        0.9691996238        0.5144684940
H                0.7040868007        0.7667837851        0.9871573786
H                0.2959132243        0.2332162101        0.4871573771
H                0.7040867757        0.2332162101        0.4871573771
H                0.2959131993        0.7667837851        0.9871573786
H                0.2040867955        0.2667837908        0.9871573727
H                0.7959132251        0.7332161976        0.4871573689
H                0.2040867749        0.7332161976        0.4871573689
H                0.7959132045        0.2667837908        0.9871573727



     Writing config-only to output data dir ./iceIh/iceIh.save/ :
     XML data file
     NEW-OLD atomic charge density approx. for the potential

     total cpu time spent up to now is      217.8 secs

     per-process dynamical memory:    55.4 Mb

     Self-consistent Calculation

     iteration #  1     ecut=    90.00 Ry     beta= 0.70
     Davidson diagonalization with overlap
     ethr =  1.00E-06,  avg # of iterations =  9.7

     total cpu time spent up to now is      240.2 secs

     total energy              =    -275.95144328 Ry
     estimated scf accuracy    <       0.01504582 Ry

     iteration #  2     ecut=    90.00 Ry     beta= 0.70
     Davidson diagonalization with overlap
     ethr =  2.35E-05,  avg # of iterations =  2.0

     total cpu time spent up to now is      248.2 secs

     total energy              =    -275.95448863 Ry
     estimated scf accuracy    <       0.00164476 Ry

     iteration #  3     ecut=    90.00 Ry     beta= 0.70
     Davidson diagonalization with overlap
     ethr =  2.57E-06,  avg # of iterations =  2.3

     total cpu time spent up to now is      256.8 secs

     total energy              =    -275.95488282 Ry
     estimated scf accuracy    <       0.00023241 Ry

     iteration #  4     ecut=    90.00 Ry     beta= 0.70
     Davidson diagonalization with overlap
     ethr =  3.63E-07,  avg # of iterations =  2.4

     total cpu time spent up to now is      264.8 secs

     total energy              =    -275.95492452 Ry
     estimated scf accuracy    <       0.00001203 Ry

     iteration #  5     ecut=    90.00 Ry     beta= 0.70
     Davidson diagonalization with overlap
     ethr =  1.88E-08,  avg # of iterations =  3.0

     total cpu time spent up to now is      273.9 secs

     total energy              =    -275.95492797 Ry
     estimated scf accuracy    <       0.00000280 Ry

     iteration #  6     ecut=    90.00 Ry     beta= 0.70
     Davidson diagonalization with overlap
     ethr =  4.37E-09,  avg # of iterations =  2.2

     total cpu time spent up to now is      281.7 secs

     total energy              =    -275.95492838 Ry
     estimated scf accuracy    <       0.00000018 Ry

     iteration #  7     ecut=    90.00 Ry     beta= 0.70
     Davidson diagonalization with overlap
     ethr =  2.78E-10,  avg # of iterations =  4.5

     total cpu time spent up to now is      292.8 secs

     total energy              =    -275.95492840 Ry
     estimated scf accuracy    <       0.00000022 Ry

     iteration #  8     ecut=    90.00 Ry     beta= 0.70
     Davidson diagonalization with overlap
     ethr =  2.78E-10,  avg # of iterations =  3.0

     total cpu time spent up to now is      301.8 secs

     End of self-consistent calculation

     Number of k-points >= 100: set verbosity='high' to print the bands.

     highest occupied level (ev):    -1.9678

!    total energy              =    -275.95492845 Ry
     estimated scf accuracy    <       0.00000002 Ry

     The total energy is the sum of the following terms:
     one-electron contribution =    -207.03755923 Ry
     hartree contribution      =     127.00038922 Ry
     xc contribution           =     -67.63998828 Ry
     ewald contribution        =    -128.27777016 Ry

     convergence has been achieved in   8 iterations

     Forces acting on atoms (cartesian axes, Ry/au):

     atom    1 type  2   force =     0.00000000   -0.02204931    0.04160759
     atom    2 type  2   force =     0.00000000    0.02204917    0.04160713
     atom    3 type  2   force =     0.00000000   -0.02204934    0.04160762
     atom    4 type  2   force =     0.00000000    0.02204924    0.04160735
     atom    5 type  2   force =     0.00000000   -0.04896017    0.05410602
     atom    6 type  2   force =     0.00000000    0.04896016    0.05410607
     atom    7 type  2   force =     0.00000000   -0.04896013    0.05410607
     atom    8 type  2   force =     0.00000000    0.04896011    0.05410603
     atom    9 type  1   force =     0.00000000    0.01374382   -0.02411827
     atom   10 type  1   force =     0.00000000   -0.01374374   -0.02411792
     atom   11 type  1   force =     0.00000000    0.01374385   -0.02411820
     atom   12 type  1   force =     0.00000000   -0.01374382   -0.02411793
     atom   13 type  1   force =     0.00000000    0.01967347   -0.01722527
     atom   14 type  1   force =     0.00000000   -0.01967346   -0.01722520
     atom   15 type  1   force =     0.00000000    0.01967344   -0.01722532
     atom   16 type  1   force =     0.00000000   -0.01967337   -0.01722531
     atom   17 type  1   force =    -0.02734132    0.02070665   -0.02718505
     atom   18 type  1   force =     0.02734130   -0.02070663   -0.02718507
     atom   19 type  1   force =    -0.02734130   -0.02070663   -0.02718507
     atom   20 type  1   force =     0.02734132    0.02070665   -0.02718505
     atom   21 type  1   force =    -0.02734130    0.02070663   -0.02718505
     atom   22 type  1   force =     0.02734127   -0.02070661   -0.02718506
     atom   23 type  1   force =    -0.02734127   -0.02070661   -0.02718506
     atom   24 type  1   force =     0.02734130    0.02070663   -0.02718505

     Total force =     0.226512     Total SCF correction =     0.000153


     Computing stress (Cartesian axis) and pressure

          total   stress  (Ry/bohr**3)                   (kbar)     P=      -19.81
  -0.00021540   0.00000000   0.00000000          -31.69        0.00        0.00
   0.00000000  -0.00008036  -0.00000000            0.00      -11.82       -0.00
   0.00000000  -0.00000000  -0.00010818            0.00       -0.00      -15.91

     Energy error            =      8.8E-02 Ry
     Gradient error          =      5.4E-02 Ry/Bohr

     number of scf cycles    =   3
     number of bfgs steps    =   2

     energy             old  =    -275.8669946035 Ry
     energy             new  =    -275.9549284511 Ry

     CASE: energy            _new < energy            _old

     new trust radius        =       0.1367242739 bohr
     new conv_thr            =       0.0000001000 Ry


ATOMIC_POSITIONS (crystal)
O                0.0000000000        0.6695484968        0.0590587697
O                0.0000000000        0.3304515199        0.5590587514
O                0.5000000000        0.1695485084        0.0590587492
O                0.5000000000        0.8304514848        0.5590587357
O                0.5000000000        0.8328413344        0.9331224187
O                0.5000000000        0.1671586738        0.4331224009
O                0.0000000000        0.3328413342        0.9331224216
O                0.0000000000        0.6671586678        0.4331223897
H                0.0000000000        0.6661689270        0.2077238821
H                0.0000000000        0.3338310882        0.7077239054
H                0.5000000000        0.1661689365        0.2077238500
H                0.5000000000        0.8338310655        0.7077238649
H                0.0000000000        0.5325279783        0.0117535933
H                0.0000000000        0.4674720278        0.5117535991
H                0.5000000000        0.0325279879        0.0117535888
H                0.5000000000        0.9674719908        0.5117535954
H                0.6979491536        0.7695786919        0.9831706986
H                0.3020508670        0.2304213052        0.4831706956
H                0.6979491330        0.2304213052        0.4831706956
H                0.3020508464        0.7695786919        0.9831706986
H                0.1979491512        0.2695786963        0.9831706927
H                0.8020508605        0.7304212955        0.4831706880
H                0.1979491395        0.7304212955        0.4831706880
H                0.8020508488        0.2695786963        0.9831706927



     Writing config-only to output data dir ./iceIh/iceIh.save/ :
     XML data file
     NEW-OLD atomic charge density approx. for the potential

     total cpu time spent up to now is      309.6 secs

     per-process dynamical memory:    55.4 Mb

     Self-consistent Calculation

     iteration #  1     ecut=    90.00 Ry     beta= 0.70
     Davidson diagonalization with overlap
     ethr =  1.00E-06,  avg # of iterations = 10.0

     total cpu time spent up to now is      333.6 secs

     total energy              =    -275.97972936 Ry
     estimated scf accuracy    <       0.03254920 Ry

     iteration #  2     ecut=    90.00 Ry     beta= 0.70
     Davidson diagonalization with overlap
     ethr =  5.09E-05,  avg # of iterations =  2.3

     total cpu time spent up to now is      342.4 secs

     total energy              =    -275.98785135 Ry
     estimated scf accuracy    <       0.00532417 Ry

     iteration #  3     ecut=    90.00 Ry     beta= 0.70
     Davidson diagonalization with overlap
     ethr =  8.32E-06,  avg # of iterations =  2.0

     total cpu time spent up to now is      349.8 secs

     total energy              =    -275.98854236 Ry
     estimated scf accuracy    <       0.00021286 Ry

     iteration #  4     ecut=    90.00 Ry     beta= 0.70
     Davidson diagonalization with overlap
     ethr =  3.33E-07,  avg # of iterations =  3.0

     total cpu time spent up to now is      359.4 secs

     total energy              =    -275.98861843 Ry
     estimated scf accuracy    <       0.00005944 Ry

     iteration #  5     ecut=    90.00 Ry     beta= 0.70
     Davidson diagonalization with overlap
     ethr =  9.29E-08,  avg # of iterations =  2.6

     total cpu time spent up to now is      368.0 secs

     total energy              =    -275.98862906 Ry
     estimated scf accuracy    <       0.00001050 Ry

     iteration #  6     ecut=    90.00 Ry     beta= 0.70
     Davidson diagonalization with overlap
     ethr =  1.64E-08,  avg # of iterations =  3.0

     total cpu time spent up to now is      377.1 secs

     total energy              =    -275.98863084 Ry
     estimated scf accuracy    <       0.00000314 Ry

     iteration #  7     ecut=    90.00 Ry     beta= 0.70
     Davidson diagonalization with overlap
     ethr =  4.90E-09,  avg # of iterations =  2.1

     total cpu time spent up to now is      385.5 secs

     total energy              =    -275.98863177 Ry
     estimated scf accuracy    <       0.00000016 Ry

     iteration #  8     ecut=    90.00 Ry     beta= 0.70
     Davidson diagonalization with overlap
     ethr =  2.57E-10,  avg # of iterations =  2.1

     total cpu time spent up to now is      393.0 secs

     End of self-consistent calculation

     Number of k-points >= 100: set verbosity='high' to print the bands.

     highest occupied level (ev):    -2.1556

!    total energy              =    -275.98863173 Ry
     estimated scf accuracy    <       0.00000008 Ry

     The total energy is the sum of the following terms:
     one-electron contribution =    -212.09655222 Ry
     hartree contribution      =     129.27282488 Ry
     xc contribution           =     -68.14479810 Ry
     ewald contribution        =    -125.02010628 Ry

     convergence has been achieved in   8 iterations

     Forces acting on atoms (cartesian axes, Ry/au):

     atom    1 type  2   force =     0.00000000   -0.02543261   -0.02173984
     atom    2 type  2   force =     0.00000000    0.02543251   -0.02173932
     atom    3 type  2   force =     0.00000000   -0.02543262   -0.02173985
     atom    4 type  2   force =     0.00000000    0.02543254   -0.02173949
     atom    5 type  2   force =     0.00000000    0.03632854   -0.01585999
     atom    6 type  2   force =     0.00000000   -0.03632861   -0.01585998
     atom    7 type  2   force =     0.00000000    0.03632860   -0.01586004
     atom    8 type  2   force =     0.00000000   -0.03632856   -0.01585995
     atom    9 type  1   force =     0.00000000    0.00186098    0.01107294
     atom   10 type  1   force =     0.00000000   -0.00186099    0.01107257
     atom   11 type  1   force =     0.00000000    0.00186099    0.01107303
     atom   12 type  1   force =     0.00000000   -0.00186101    0.01107279
     atom   13 type  1   force =     0.00000000    0.02099978    0.00398954
     atom   14 type  1   force =     0.00000000   -0.02099971    0.00398948
     atom   15 type  1   force =     0.00000000    0.02099975    0.00398951
     atom   16 type  1   force =     0.00000000   -0.02099965    0.00398945
     atom   17 type  1   force =     0.01233626   -0.01705377    0.01126864
     atom   18 type  1   force =    -0.01233633    0.01705381    0.01126865
     atom   19 type  1   force =     0.01233633    0.01705381    0.01126865
     atom   20 type  1   force =    -0.01233626   -0.01705377    0.01126864
     atom   21 type  1   force =     0.01233630   -0.01705380    0.01126866
     atom   22 type  1   force =    -0.01233630    0.01705380    0.01126864
     atom   23 type  1   force =     0.01233630    0.01705380    0.01126864
     atom   24 type  1   force =    -0.01233630   -0.01705380    0.01126866

     Total force =     0.132871     Total SCF correction =     0.000123


     Computing stress (Cartesian axis) and pressure

          total   stress  (Ry/bohr**3)                   (kbar)     P=       45.57
   0.00039604   0.00000000   0.00000000           58.26        0.00        0.00
   0.00000000   0.00014663  -0.00000000            0.00       21.57       -0.00
   0.00000000  -0.00000000   0.00038672            0.00       -0.00       56.89

     Energy error            =      3.4E-02 Ry
     Gradient error          =      3.6E-02 Ry/Bohr

     number of scf cycles    =   4
     number of bfgs steps    =   3

     energy             old  =    -275.9549284511 Ry
     energy             new  =    -275.9886317289 Ry

     CASE: energy            _new < energy            _old

     new trust radius        =       0.0407005951 bohr
     new conv_thr            =       0.0000001000 Ry


ATOMIC_POSITIONS (crystal)
O                0.0000000000        0.6688575231        0.0572731769
O                0.0000000000        0.3311424913        0.5572731944
O                0.5000000000        0.1688575346        0.0572731552
O                0.5000000000        0.8311424576        0.5572731653
O                0.5000000000        0.8353281722        0.9313823880
O                0.5000000000        0.1646718321        0.4313823699
O                0.0000000000        0.3353281743        0.9313823878
O                0.0000000000        0.6646718298        0.4313823610
H                0.0000000000        0.6660088499        0.2086849981
H                0.0000000000        0.3339911630        0.7086849954
H                0.5000000000        0.1660088596        0.2086849698
H                0.5000000000        0.8339911410        0.7086849674
H                0.0000000000        0.5331001292        0.0122570011
H                0.0000000000        0.4668998801        0.5122570021
H                0.5000000000        0.0331001376        0.0122569957
H                0.5000000000        0.9668998441        0.5122569989
H                0.6996452176        0.7684303692        0.9842012469
H                0.3003547970        0.2315696298        0.4842012445
H                0.6996452030        0.2315696298        0.4842012445
H                0.3003547824        0.7684303692        0.9842012469
H                0.1996452186        0.2684303723        0.9842012419
H                0.8003547936        0.7315696190        0.4842012362
H                0.1996452064        0.7315696190        0.4842012362
H                0.8003547814        0.2684303723        0.9842012419



     Writing config-only to output data dir ./iceIh/iceIh.save/ :
     XML data file
     NEW-OLD atomic charge density approx. for the potential

     total cpu time spent up to now is      400.8 secs

     per-process dynamical memory:    55.4 Mb

     Self-consistent Calculation

     iteration #  1     ecut=    90.00 Ry     beta= 0.70
     Davidson diagonalization with overlap
     ethr =  1.00E-06,  avg # of iterations =  6.7

     total cpu time spent up to now is      417.3 secs

     total energy              =    -275.99453885 Ry
     estimated scf accuracy    <       0.00312076 Ry

     iteration #  2     ecut=    90.00 Ry     beta= 0.70
     Davidson diagonalization with overlap
     ethr =  4.88E-06,  avg # of iterations =  3.0

     total cpu time spent up to now is      426.4 secs

     total energy              =    -275.99523883 Ry
     estimated scf accuracy    <       0.00063198 Ry

     iteration #  3     ecut=    90.00 Ry     beta= 0.70
     Davidson diagonalization with overlap
     ethr =  9.87E-07,  avg # of iterations =  2.9

     total cpu time spent up to now is      434.9 secs

     total energy              =    -275.99537781 Ry
     estimated scf accuracy    <       0.00003014 Ry

     iteration #  4     ecut=    90.00 Ry     beta= 0.70
     Davidson diagonalization with overlap
     ethr =  4.71E-08,  avg # of iterations =  2.0

     total cpu time spent up to now is      442.9 secs

     total energy              =    -275.99538351 Ry
     estimated scf accuracy    <       0.00000406 Ry

     iteration #  5     ecut=    90.00 Ry     beta= 0.70
     Davidson diagonalization with overlap
     ethr =  6.34E-09,  avg # of iterations =  2.1

     total cpu time spent up to now is      451.4 secs

     total energy              =    -275.99538443 Ry
     estimated scf accuracy    <       0.00000023 Ry

     iteration #  6     ecut=    90.00 Ry     beta= 0.70
     Davidson diagonalization with overlap
     ethr =  3.66E-10,  avg # of iterations =  4.2

     total cpu time spent up to now is      461.0 secs

     End of self-consistent calculation

     Number of k-points >= 100: set verbosity='high' to print the bands.

     highest occupied level (ev):    -2.1372

!    total energy              =    -275.99538446 Ry
     estimated scf accuracy    <       0.00000008 Ry

     The total energy is the sum of the following terms:
     one-electron contribution =    -210.83534384 Ry
     hartree contribution      =     128.70749200 Ry
     xc contribution           =     -68.01852911 Ry
     ewald contribution        =    -125.84900350 Ry

     convergence has been achieved in   6 iterations

     Forces acting on atoms (cartesian axes, Ry/au):

     atom    1 type  2   force =     0.00000000   -0.00599293    0.00445050
     atom    2 type  2   force =     0.00000000    0.00599293    0.00445034
     atom    3 type  2   force =     0.00000000   -0.00599295    0.00445052
     atom    4 type  2   force =     0.00000000    0.00599293    0.00445044
     atom    5 type  2   force =     0.00000000    0.00027604    0.00638576
     atom    6 type  2   force =     0.00000000   -0.00027605    0.00638579
     atom    7 type  2   force =     0.00000000    0.00027605    0.00638578
     atom    8 type  2   force =     0.00000000   -0.00027607    0.00638579
     atom    9 type  1   force =     0.00000000    0.00284252   -0.00358604
     atom   10 type  1   force =     0.00000000   -0.00284251   -0.00358590
     atom   11 type  1   force =     0.00000000    0.00284254   -0.00358599
     atom   12 type  1   force =     0.00000000   -0.00284253   -0.00358589
     atom   13 type  1   force =     0.00000000    0.00647820   -0.00372904
     atom   14 type  1   force =     0.00000000   -0.00647823   -0.00372902
     atom   15 type  1   force =     0.00000000    0.00647818   -0.00372906
     atom   16 type  1   force =     0.00000000   -0.00647815   -0.00372907
     atom   17 type  1   force =    -0.00599320   -0.00189390   -0.00176061
     atom   18 type  1   force =     0.00599317    0.00189391   -0.00176061
     atom   19 type  1   force =    -0.00599317    0.00189391   -0.00176061
     atom   20 type  1   force =     0.00599320   -0.00189390   -0.00176061
     atom   21 type  1   force =    -0.00599319   -0.00189390   -0.00176061
     atom   22 type  1   force =     0.00599316    0.00189392   -0.00176061
     atom   23 type  1   force =    -0.00599316    0.00189392   -0.00176061
     atom   24 type  1   force =     0.00599319   -0.00189390   -0.00176061

     Total force =     0.032162     Total SCF correction =     0.000304


     Computing stress (Cartesian axis) and pressure

          total   stress  (Ry/bohr**3)                   (kbar)     P=       27.70
   0.00015998   0.00000000   0.00000000           23.53        0.00        0.00
   0.00000000   0.00018107   0.00000000            0.00       26.64        0.00
   0.00000000   0.00000000   0.00022378            0.00        0.00       32.92

     Energy error            =      6.8E-03 Ry
     Gradient error          =      6.5E-03 Ry/Bohr

     number of scf cycles    =   5
     number of bfgs steps    =   4

     energy             old  =    -275.9886317289 Ry
     energy             new  =    -275.9953844550 Ry

     CASE: energy            _new < energy            _old

     new trust radius        =       0.0077210585 bohr
     new conv_thr            =       0.0000000648 Ry


ATOMIC_POSITIONS (crystal)
O                0.0000000000        0.6684484017        0.0576428439
O                0.0000000000        0.3315516117        0.5576428524
O                0.5000000000        0.1684484116        0.0576428242
O                0.5000000000        0.8315515792        0.5576428298
O                0.5000000000        0.8353492543        0.9319270278
O                0.5000000000        0.1646507486        0.4319270125
O                0.0000000000        0.3353492574        0.9319270292
O                0.0000000000        0.6646507454        0.4319270035
H                0.0000000000        0.6662404243        0.2084410189
H                0.0000000000        0.3337595894        0.7084410246
H                0.5000000000        0.1662404350        0.2084409947
H                0.5000000000        0.8337595656        0.7084409987
H                0.0000000000        0.5335686653        0.0119217478
H                0.0000000000        0.4664313422        0.5119217496
H                0.5000000000        0.0335686722        0.0119217403
H                0.5000000000        0.9664313117        0.5119217424
H                0.6989175161        0.7682700907        0.9840337078
H                0.3010824947        0.2317299091        0.4840337052
H                0.6989175053        0.2317299091        0.4840337052
H                0.3010824839        0.7682700907        0.9840337078
H                0.1989175181        0.2682700935        0.9840337029
H                0.8010824899        0.7317298990        0.4840336969
H                0.1989175101        0.7317298990        0.4840336969
H                0.8010824819        0.2682700935        0.9840337029



     Writing config-only to output data dir ./iceIh/iceIh.save/ :
     XML data file
     NEW-OLD atomic charge density approx. for the potential

     total cpu time spent up to now is      468.6 secs

     per-process dynamical memory:    55.4 Mb

     Self-consistent Calculation

     iteration #  1     ecut=    90.00 Ry     beta= 0.70
     Davidson diagonalization with overlap
     ethr =  1.00E-06,  avg # of iterations =  3.1

     total cpu time spent up to now is      479.5 secs

     total energy              =    -275.99609024 Ry
     estimated scf accuracy    <       0.00011873 Ry

     iteration #  2     ecut=    90.00 Ry     beta= 0.70
     Davidson diagonalization with overlap
     ethr =  1.86E-07,  avg # of iterations =  3.0

     total cpu time spent up to now is      488.4 secs

     total energy              =    -275.99612346 Ry
     estimated scf accuracy    <       0.00002404 Ry

     iteration #  3     ecut=    90.00 Ry     beta= 0.70
     Davidson diagonalization with overlap
     ethr =  3.76E-08,  avg # of iterations =  2.2

     total cpu time spent up to now is      496.3 secs

     total energy              =    -275.99612758 Ry
     estimated scf accuracy    <       0.00000095 Ry

     iteration #  4     ecut=    90.00 Ry     beta= 0.70
     Davidson diagonalization with overlap
     ethr =  1.49E-09,  avg # of iterations =  3.0

     total cpu time spent up to now is      506.0 secs

     total energy              =    -275.99612788 Ry
     estimated scf accuracy    <       0.00000044 Ry

     iteration #  5     ecut=    90.00 Ry     beta= 0.70
     Davidson diagonalization with overlap
     ethr =  6.92E-10,  avg # of iterations =  2.0

     total cpu time spent up to now is      513.8 secs

     End of self-consistent calculation

     Number of k-points >= 100: set verbosity='high' to print the bands.

     highest occupied level (ev):    -2.1508

!    total energy              =    -275.99612793 Ry
     estimated scf accuracy    <       0.00000005 Ry

     The total energy is the sum of the following terms:
     one-electron contribution =    -211.19702062 Ry
     hartree contribution      =     128.86871476 Ry
     xc contribution           =     -68.05458188 Ry
     ewald contribution        =    -125.61324019 Ry

     convergence has been achieved in   5 iterations

     Forces acting on atoms (cartesian axes, Ry/au):

     atom    1 type  2   force =     0.00000000   -0.00009400    0.00073672
     atom    2 type  2   force =     0.00000000    0.00009396    0.00073673
     atom    3 type  2   force =     0.00000000   -0.00009401    0.00073675
     atom    4 type  2   force =     0.00000000    0.00009400    0.00073676
     atom    5 type  2   force =     0.00000000    0.00162989    0.00309465
     atom    6 type  2   force =     0.00000000   -0.00162990    0.00309469
     atom    7 type  2   force =     0.00000000    0.00162990    0.00309466
     atom    8 type  2   force =     0.00000000   -0.00162990    0.00309469
     atom    9 type  1   force =     0.00000000    0.00120518   -0.00041175
     atom   10 type  1   force =     0.00000000   -0.00120518   -0.00041174
     atom   11 type  1   force =     0.00000000    0.00120518   -0.00041172
     atom   12 type  1   force =     0.00000000   -0.00120519   -0.00041170
     atom   13 type  1   force =     0.00000000    0.00191374   -0.00293535
     atom   14 type  1   force =     0.00000000   -0.00191373   -0.00293535
     atom   15 type  1   force =     0.00000000    0.00191372   -0.00293536
     atom   16 type  1   force =     0.00000000   -0.00191370   -0.00293537
     atom   17 type  1   force =    -0.00351899   -0.00269628   -0.00024216
     atom   18 type  1   force =     0.00351898    0.00269628   -0.00024217
     atom   19 type  1   force =    -0.00351898    0.00269628   -0.00024217
     atom   20 type  1   force =     0.00351899   -0.00269628   -0.00024216
     atom   21 type  1   force =    -0.00351899   -0.00269628   -0.00024216
     atom   22 type  1   force =     0.00351898    0.00269629   -0.00024217
     atom   23 type  1   force =    -0.00351898    0.00269629   -0.00024217
     atom   24 type  1   force =     0.00351899   -0.00269628   -0.00024216

     Total force =     0.016262     Total SCF correction =     0.000270


     Computing stress (Cartesian axis) and pressure

          total   stress  (Ry/bohr**3)                   (kbar)     P=       32.57
   0.00018709   0.00000000   0.00000000           27.52        0.00        0.00
   0.00000000   0.00022358  -0.00000000            0.00       32.89       -0.00
   0.00000000  -0.00000000   0.00025349            0.00       -0.00       37.29

     Energy error            =      7.4E-04 Ry
     Gradient error          =      3.5E-03 Ry/Bohr

     number of scf cycles    =   6
     number of bfgs steps    =   5

     energy             old  =    -275.9953844550 Ry
     energy             new  =    -275.9961279324 Ry

     CASE: energy            _new < energy            _old

     new trust radius        =       0.0092811637 bohr
     new conv_thr            =       0.0000000074 Ry


ATOMIC_POSITIONS (crystal)
O                0.0000000000        0.6683049254        0.0578316280
O                0.0000000000        0.3316950832        0.5578316368
O                0.5000000000        0.1683049325        0.0578316126
O                0.5000000000        0.8316950569        0.5578316188
O                0.5000000000        0.8355938836        0.9324981838
O                0.5000000000        0.1644061179        0.4324981742
O                0.0000000000        0.3355938878        0.9324981870
O                0.0000000000        0.6644061148        0.4324981659
H                0.0000000000        0.6664690804        0.2083447466
H                0.0000000000        0.3335309338        0.7083447551
H                0.5000000000        0.1664690920        0.2083447277
H                0.5000000000        0.8335309078        0.7083447352
H                0.0000000000        0.5339611466        0.0114212597
H                0.0000000000        0.4660388616        0.5114212605
H                0.5000000000        0.0339611512        0.0114212493
H                0.5000000000        0.9660388363        0.5114212495
H                0.6979867329        0.7678626843        0.9839521145
H                0.3020132737        0.2321373160        0.4839521110
H                0.6979867263        0.2321373160        0.4839521110
H                0.3020132671        0.7678626843        0.9839521145
H                0.1979867355        0.2678626867        0.9839521096
H                0.8020132681        0.7321373069        0.4839521025
H                0.1979867319        0.7321373069        0.4839521025
H                0.8020132645        0.2678626867        0.9839521096



     Writing config-only to output data dir ./iceIh/iceIh.save/ :
     XML data file
     NEW-OLD atomic charge density approx. for the potential

     total cpu time spent up to now is      521.5 secs

     per-process dynamical memory:    55.4 Mb

     Self-consistent Calculation

     iteration #  1     ecut=    90.00 Ry     beta= 0.70
     Davidson diagonalization with overlap
     ethr =  1.00E-06,  avg # of iterations =  3.0

     Threshold (ethr) on eigenvalues was too large:
     Diagonalizing with lowered threshold

     Davidson diagonalization with overlap
     ethr =  9.49E-08,  avg # of iterations =  2.0

     total cpu time spent up to now is      538.8 secs

     total energy              =    -275.99649073 Ry
     estimated scf accuracy    <       0.00006655 Ry

     iteration #  2     ecut=    90.00 Ry     beta= 0.70
     Davidson diagonalization with overlap
     ethr =  1.04E-07,  avg # of iterations =  2.0

     total cpu time spent up to now is      547.1 secs

     total energy              =    -275.99650391 Ry
     estimated scf accuracy    <       0.00000684 Ry

     iteration #  3     ecut=    90.00 Ry     beta= 0.70
     Davidson diagonalization with overlap
     ethr =  1.07E-08,  avg # of iterations =  2.0

     total cpu time spent up to now is      555.0 secs

     total energy              =    -275.99650529 Ry
     estimated scf accuracy    <       0.00000034 Ry

     iteration #  4     ecut=    90.00 Ry     beta= 0.70
     Davidson diagonalization with overlap
     ethr =  5.33E-10,  avg # of iterations =  2.0

     total cpu time spent up to now is      562.4 secs

     total energy              =    -275.99650534 Ry
     estimated scf accuracy    <       0.00000004 Ry

     iteration #  5     ecut=    90.00 Ry     beta= 0.70
     Davidson diagonalization with overlap
     ethr =  6.77E-11,  avg # of iterations =  3.0

     total cpu time spent up to now is      571.5 secs

     total energy              =    -275.99650536 Ry
     estimated scf accuracy    <       0.00000002 Ry

     iteration #  6     ecut=    90.00 Ry     beta= 0.70
     Davidson diagonalization with overlap
     ethr =  2.38E-11,  avg # of iterations =  2.0

     total cpu time spent up to now is      578.7 secs

     End of self-consistent calculation

     Number of k-points >= 100: set verbosity='high' to print the bands.

     highest occupied level (ev):    -2.1599

!    total energy              =    -275.99650536 Ry
     estimated scf accuracy    <          1.1E-09 Ry

     The total energy is the sum of the following terms:
     one-electron contribution =    -211.40774548 Ry
     hartree contribution      =     128.96084685 Ry
     xc contribution           =     -68.07510412 Ry
     ewald contribution        =    -125.47450260 Ry

     convergence has been achieved in   6 iterations

     Forces acting on atoms (cartesian axes, Ry/au):

     atom    1 type  2   force =     0.00000000    0.00310698   -0.00098558
     atom    2 type  2   force =     0.00000000   -0.00310696   -0.00098558
     atom    3 type  2   force =     0.00000000    0.00310696   -0.00098557
     atom    4 type  2   force =     0.00000000   -0.00310693   -0.00098557
     atom    5 type  2   force =     0.00000000    0.00135176    0.00055083
     atom    6 type  2   force =     0.00000000   -0.00135176    0.00055084
     atom    7 type  2   force =     0.00000000    0.00135176    0.00055083
     atom    8 type  2   force =     0.00000000   -0.00135177    0.00055085
     atom    9 type  1   force =     0.00000000   -0.00014461    0.00063423
     atom   10 type  1   force =     0.00000000    0.00014460    0.00063422
     atom   11 type  1   force =     0.00000000   -0.00014461    0.00063425
     atom   12 type  1   force =     0.00000000    0.00014461    0.00063424
     atom   13 type  1   force =     0.00000000   -0.00067315   -0.00163603
     atom   14 type  1   force =     0.00000000    0.00067312   -0.00163603
     atom   15 type  1   force =     0.00000000   -0.00067315   -0.00163603
     atom   16 type  1   force =     0.00000000    0.00067314   -0.00163603
     atom   17 type  1   force =    -0.00078622   -0.00243902    0.00071827
     atom   18 type  1   force =     0.00078621    0.00243902    0.00071827
     atom   19 type  1   force =    -0.00078621    0.00243902    0.00071827
     atom   20 type  1   force =     0.00078622   -0.00243902    0.00071827
     atom   21 type  1   force =    -0.00078622   -0.00243902    0.00071827
     atom   22 type  1   force =     0.00078621    0.00243903    0.00071827
     atom   23 type  1   force =    -0.00078621    0.00243903    0.00071827
     atom   24 type  1   force =     0.00078622   -0.00243902    0.00071827

     Total force =     0.011041     Total SCF correction =     0.000038


     Computing stress (Cartesian axis) and pressure

          total   stress  (Ry/bohr**3)                   (kbar)     P=       35.26
   0.00021060   0.00000000   0.00000000           30.98        0.00        0.00
   0.00000000   0.00024748   0.00000000            0.00       36.41        0.00
   0.00000000   0.00000000   0.00026110            0.00        0.00       38.41

     Energy error            =      3.8E-04 Ry
     Gradient error          =      3.1E-03 Ry/Bohr

     number of scf cycles    =   7
     number of bfgs steps    =   6

     energy             old  =    -275.9961279324 Ry
     energy             new  =    -275.9965053565 Ry

     CASE: energy            _new < energy            _old

     new trust radius        =       0.0068178709 bohr
     new conv_thr            =       0.0000000038 Ry


ATOMIC_POSITIONS (crystal)
O                0.0000000000        0.6684484961        0.0578324443
O                0.0000000000        0.3315515133        0.5578324509
O                0.5000000000        0.1684485002        0.0578324316
O                0.5000000000        0.8315514913        0.5578324368
O                0.5000000000        0.8358273074        0.9328027370
O                0.5000000000        0.1641726927        0.4328027313
O                0.0000000000        0.3358273122        0.9328027416
O                0.0000000000        0.6641726893        0.4328027237
H                0.0000000000        0.6665623322        0.2083317626
H                0.0000000000        0.3334376817        0.7083317737
H                0.5000000000        0.1665623438        0.2083317481
H                0.5000000000        0.8334376553        0.7083317578
H                0.0000000000        0.5341280783        0.0110573045
H                0.0000000000        0.4658719267        0.5110573057
H                0.5000000000        0.0341280819        0.0110572930
H                0.5000000000        0.9658719061        0.5110572929
H                0.6974623501        0.7674679936        0.9839878964
H                0.3025376532        0.2325320072        0.4839878928
H                0.6974623468        0.2325320072        0.4839878928
H                0.3025376499        0.7674679936        0.9839878964
H                0.1974623526        0.2674679957        0.9839878916
H                0.8025376473        0.7325319992        0.4839878843
H                0.1974623527        0.7325319992        0.4839878843
H                0.8025376474        0.2674679957        0.9839878916



     Writing config-only to output data dir ./iceIh/iceIh.save/ :
     XML data file
     NEW-OLD atomic charge density approx. for the potential

     total cpu time spent up to now is      586.5 secs

     per-process dynamical memory:    55.4 Mb

     Self-consistent Calculation

     iteration #  1     ecut=    90.00 Ry     beta= 0.70
     Davidson diagonalization with overlap
     ethr =  1.00E-06,  avg # of iterations =  3.0

     Threshold (ethr) on eigenvalues was too large:
     Diagonalizing with lowered threshold

     Davidson diagonalization with overlap
     ethr =  2.65E-08,  avg # of iterations =  2.0

     total cpu time spent up to now is      603.6 secs

     total energy              =    -275.99664385 Ry
     estimated scf accuracy    <       0.00002024 Ry

     iteration #  2     ecut=    90.00 Ry     beta= 0.70
     Davidson diagonalization with overlap
     ethr =  3.16E-08,  avg # of iterations =  2.0

     total cpu time spent up to now is      610.6 secs

     total energy              =    -275.99664667 Ry
     estimated scf accuracy    <       0.00000075 Ry

     iteration #  3     ecut=    90.00 Ry     beta= 0.70
     Davidson diagonalization with overlap
     ethr =  1.17E-09,  avg # of iterations =  3.1

     total cpu time spent up to now is      619.7 secs

     total energy              =    -275.99664688 Ry
     estimated scf accuracy    <       0.00000007 Ry

     iteration #  4     ecut=    90.00 Ry     beta= 0.70
     Davidson diagonalization with overlap
     ethr =  1.09E-10,  avg # of iterations =  2.4

     total cpu time spent up to now is      628.3 secs

     total energy              =    -275.99664690 Ry
     estimated scf accuracy    <          8.4E-09 Ry

     iteration #  5     ecut=    90.00 Ry     beta= 0.70
     Davidson diagonalization with overlap
     ethr =  1.31E-11,  avg # of iterations =  2.5

     total cpu time spent up to now is      636.6 secs

     End of self-consistent calculation

     Number of k-points >= 100: set verbosity='high' to print the bands.

     highest occupied level (ev):    -2.1619

!    total energy              =    -275.99664690 Ry
     estimated scf accuracy    <          4.7E-10 Ry

     The total energy is the sum of the following terms:
     one-electron contribution =    -211.40888059 Ry
     hartree contribution      =     128.96103741 Ry
     xc contribution           =     -68.07504214 Ry
     ewald contribution        =    -125.47376158 Ry

     convergence has been achieved in   5 iterations

     Forces acting on atoms (cartesian axes, Ry/au):

     atom    1 type  2   force =     0.00000000    0.00248343   -0.00129420
     atom    2 type  2   force =     0.00000000   -0.00248345   -0.00129414
     atom    3 type  2   force =     0.00000000    0.00248343   -0.00129418
     atom    4 type  2   force =     0.00000000   -0.00248342   -0.00129416
     atom    5 type  2   force =     0.00000000   -0.00002621    0.00005370
     atom    6 type  2   force =     0.00000000    0.00002622    0.00005371
     atom    7 type  2   force =     0.00000000   -0.00002621    0.00005370
     atom    8 type  2   force =     0.00000000    0.00002622    0.00005372
     atom    9 type  1   force =     0.00000000   -0.00055188    0.00036638
     atom   10 type  1   force =     0.00000000    0.00055187    0.00036634
     atom   11 type  1   force =     0.00000000   -0.00055189    0.00036639
     atom   12 type  1   force =     0.00000000    0.00055189    0.00036636
     atom   13 type  1   force =     0.00000000   -0.00046836   -0.00058751
     atom   14 type  1   force =     0.00000000    0.00046837   -0.00058752
     atom   15 type  1   force =     0.00000000   -0.00046836   -0.00058751
     atom   16 type  1   force =     0.00000000    0.00046837   -0.00058750
     atom   17 type  1   force =     0.00034878   -0.00139577    0.00073080
     atom   18 type  1   force =    -0.00034878    0.00139577    0.00073080
     atom   19 type  1   force =     0.00034878    0.00139577    0.00073080
     atom   20 type  1   force =    -0.00034878   -0.00139577    0.00073080
     atom   21 type  1   force =     0.00034878   -0.00139578    0.00073080
     atom   22 type  1   force =    -0.00034877    0.00139578    0.00073080
     atom   23 type  1   force =     0.00034877    0.00139578    0.00073080
     atom   24 type  1   force =    -0.00034878   -0.00139578    0.00073080

     Total force =     0.007499     Total SCF correction =     0.000083


     Computing stress (Cartesian axis) and pressure

          total   stress  (Ry/bohr**3)                   (kbar)     P=       35.37
   0.00021992   0.00000000   0.00000000           32.35        0.00        0.00
   0.00000000   0.00024561  -0.00000000            0.00       36.13       -0.00
   0.00000000  -0.00000000   0.00025587            0.00       -0.00       37.64

     Energy error            =      1.4E-04 Ry
     Gradient error          =      2.5E-03 Ry/Bohr

     number of scf cycles    =   8
     number of bfgs steps    =   7

     energy             old  =    -275.9965053565 Ry
     energy             new  =    -275.9966468975 Ry

     CASE: energy            _new < energy            _old

     new trust radius        =       0.0044717553 bohr
     new conv_thr            =       0.0000000014 Ry


ATOMIC_POSITIONS (crystal)
O                0.0000000000        0.6686653975        0.0577228927
O                0.0000000000        0.3313346094        0.5577229035
O                0.5000000000        0.1686654001        0.0577228827
O                0.5000000000        0.8313345920        0.5577228901
O                0.5000000000        0.8359103031        0.9329711626
O                0.5000000000        0.1640896968        0.4329711600
O                0.0000000000        0.3359103086        0.9329711681
O                0.0000000000        0.6640896935        0.4329711536
H                0.0000000000        0.6665631676        0.2083270407
H                0.0000000000        0.3334368456        0.7083270492
H                0.5000000000        0.1665631780        0.2083270288
H                0.5000000000        0.8334368204        0.7083270368
H                0.0000000000        0.5342219204        0.0108414809
H                0.0000000000        0.4657780848        0.5108414813
H                0.5000000000        0.0342219228        0.0108414694
H                0.5000000000        0.9657780667        0.5108414692
H                0.6972578807        0.7671726571        0.9840687295
H                0.3027421218        0.2328273436        0.4840687260
H                0.6972578782        0.2328273436        0.4840687260
H                0.3027421193        0.7671726571        0.9840687295
H                0.1972578827        0.2671726589        0.9840687251
H                0.8027421166        0.7328273367        0.4840687175
H                0.1972578834        0.7328273367        0.4840687175
H                0.8027421173        0.2671726589        0.9840687251



     Writing config-only to output data dir ./iceIh/iceIh.save/ :
     XML data file
     NEW-OLD atomic charge density approx. for the potential

     total cpu time spent up to now is      644.3 secs

     per-process dynamical memory:    55.4 Mb

     Self-consistent Calculation

     iteration #  1     ecut=    90.00 Ry     beta= 0.70
     Davidson diagonalization with overlap
     ethr =  1.00E-06,  avg # of iterations =  3.0

     Threshold (ethr) on eigenvalues was too large:
     Diagonalizing with lowered threshold

     Davidson diagonalization with overlap
     ethr =  1.85E-08,  avg # of iterations =  2.8

     total cpu time spent up to now is      661.6 secs

     total energy              =    -275.99669906 Ry
     estimated scf accuracy    <       0.00001581 Ry

     iteration #  2     ecut=    90.00 Ry     beta= 0.70
     Davidson diagonalization with overlap
     ethr =  2.47E-08,  avg # of iterations =  2.2

     total cpu time spent up to now is      669.9 secs

     total energy              =    -275.99670209 Ry
     estimated scf accuracy    <       0.00000259 Ry

     iteration #  3     ecut=    90.00 Ry     beta= 0.70
     Davidson diagonalization with overlap
     ethr =  4.05E-09,  avg # of iterations =  2.2

     total cpu time spent up to now is      678.6 secs

     total energy              =    -275.99670274 Ry
     estimated scf accuracy    <       0.00000021 Ry

     iteration #  4     ecut=    90.00 Ry     beta= 0.70
     Davidson diagonalization with overlap
     ethr =  3.26E-10,  avg # of iterations =  2.0

     total cpu time spent up to now is      686.4 secs

     total energy              =    -275.99670277 Ry
     estimated scf accuracy    <       0.00000002 Ry

     iteration #  5     ecut=    90.00 Ry     beta= 0.70
     Davidson diagonalization with overlap
     ethr =  3.63E-11,  avg # of iterations =  2.2

     total cpu time spent up to now is      694.9 secs

     total energy              =    -275.99670278 Ry
     estimated scf accuracy    <          1.6E-09 Ry

     iteration #  6     ecut=    90.00 Ry     beta= 0.70
     Davidson diagonalization with overlap
     ethr =  2.47E-12,  avg # of iterations =  2.3

     total cpu time spent up to now is      702.9 secs

     End of self-consistent calculation

     Number of k-points >= 100: set verbosity='high' to print the bands.

     highest occupied level (ev):    -2.1612

!    total energy              =    -275.99670278 Ry
     estimated scf accuracy    <          5.4E-10 Ry

     The total energy is the sum of the following terms:
     one-electron contribution =    -211.34929195 Ry
     hartree contribution      =     128.93402947 Ry
     xc contribution           =     -68.06892892 Ry
     ewald contribution        =    -125.51251138 Ry

     convergence has been achieved in   6 iterations

     Forces acting on atoms (cartesian axes, Ry/au):

     atom    1 type  2   force =     0.00000000    0.00084208   -0.00054819
     atom    2 type  2   force =     0.00000000   -0.00084206   -0.00054822
     atom    3 type  2   force =     0.00000000    0.00084207   -0.00054819
     atom    4 type  2   force =     0.00000000   -0.00084206   -0.00054821
     atom    5 type  2   force =     0.00000000   -0.00096241    0.00004901
     atom    6 type  2   force =     0.00000000    0.00096240    0.00004901
     atom    7 type  2   force =     0.00000000   -0.00096241    0.00004901
     atom    8 type  2   force =     0.00000000    0.00096240    0.00004901
     atom    9 type  1   force =     0.00000000   -0.00042791   -0.00039733
     atom   10 type  1   force =     0.00000000    0.00042790   -0.00039732
     atom   11 type  1   force =     0.00000000   -0.00042792   -0.00039733
     atom   12 type  1   force =     0.00000000    0.00042792   -0.00039733
     atom   13 type  1   force =     0.00000000    0.00029861   -0.00007096
     atom   14 type  1   force =     0.00000000   -0.00029863   -0.00007096
     atom   15 type  1   force =     0.00000000    0.00029861   -0.00007095
     atom   16 type  1   force =     0.00000000   -0.00029862   -0.00007094
     atom   17 type  1   force =     0.00064231   -0.00051037    0.00048373
     atom   18 type  1   force =    -0.00064231    0.00051037    0.00048374
     atom   19 type  1   force =     0.00064231    0.00051037    0.00048374
     atom   20 type  1   force =    -0.00064231   -0.00051037    0.00048373
     atom   21 type  1   force =     0.00064231   -0.00051037    0.00048374
     atom   22 type  1   force =    -0.00064231    0.00051038    0.00048374
     atom   23 type  1   force =     0.00064231    0.00051038    0.00048374
     atom   24 type  1   force =    -0.00064231   -0.00051037    0.00048374

     Total force =     0.004093     Total SCF correction =     0.000038


     Computing stress (Cartesian axis) and pressure

          total   stress  (Ry/bohr**3)                   (kbar)     P=       34.59
   0.00022359   0.00000000   0.00000000           32.89        0.00        0.00
   0.00000000   0.00023686   0.00000000            0.00       34.84        0.00
   0.00000000   0.00000000   0.00024492            0.00        0.00       36.03

     Energy error            =      5.6E-05 Ry
     Gradient error          =      9.6E-04 Ry/Bohr

     number of scf cycles    =   9
     number of bfgs steps    =   8

     energy             old  =    -275.9966468975 Ry
     energy             new  =    -275.9967027768 Ry

     CASE: energy            _new < energy            _old

     new trust radius        =       0.0021172991 bohr
     new conv_thr            =       0.0000000010 Ry


ATOMIC_POSITIONS (crystal)
O                0.0000000000        0.6687957301        0.0576430663
O                0.0000000000        0.3312042782        0.5576430745
O                0.5000000000        0.1687957315        0.0576430570
O                0.5000000000        0.8312042622        0.5576430626
O                0.5000000000        0.8358466523        0.9330335067
O                0.5000000000        0.1641533471        0.4330335045
O                0.0000000000        0.3358466581        0.9330335128
O                0.0000000000        0.6641533435        0.4330334989
H                0.0000000000        0.6665274294        0.2082780444
H                0.0000000000        0.3334725830        0.7082780541
H                0.5000000000        0.1665274382        0.2082780343
H                0.5000000000        0.8334725598        0.7082780424
H                0.0000000000        0.5342894007        0.0107651747
H                0.0000000000        0.4657106023        0.5107651756
H                0.5000000000        0.0342894028        0.0107651643
H                0.5000000000        0.9657105866        0.5107651651
H                0.6972861370        0.7670340761        0.9841401204
H                0.3027138650        0.2329659245        0.4841401177
H                0.6972861350        0.2329659245        0.4841401177
H                0.3027138630        0.7670340761        0.9841401204
H                0.1972861384        0.2670340779        0.9841401163
H                0.8027138603        0.7329659186        0.4841401094
H                0.1972861397        0.7329659186        0.4841401094
H                0.8027138616        0.2670340779        0.9841401163



     Writing config-only to output data dir ./iceIh/iceIh.save/ :
     XML data file
     NEW-OLD atomic charge density approx. for the potential

     total cpu time spent up to now is      710.7 secs

     per-process dynamical memory:    55.4 Mb

     Self-consistent Calculation

     iteration #  1     ecut=    90.00 Ry     beta= 0.70
     Davidson diagonalization with overlap
     ethr =  1.00E-06,  avg # of iterations =  2.0

     Threshold (ethr) on eigenvalues was too large:
     Diagonalizing with lowered threshold

     Davidson diagonalization with overlap
     ethr =  7.98E-09,  avg # of iterations =  2.8

     total cpu time spent up to now is      727.4 secs

     total energy              =    -275.99672103 Ry
     estimated scf accuracy    <       0.00000603 Ry

     iteration #  2     ecut=    90.00 Ry     beta= 0.70
     Davidson diagonalization with overlap
     ethr =  9.42E-09,  avg # of iterations =  3.0

     total cpu time spent up to now is      736.6 secs

     total energy              =    -275.99672212 Ry
     estimated scf accuracy    <       0.00000340 Ry

     iteration #  3     ecut=    90.00 Ry     beta= 0.70
     Davidson diagonalization with overlap
     ethr =  5.31E-09,  avg # of iterations =  2.9

     total cpu time spent up to now is      745.0 secs

     total energy              =    -275.99672294 Ry
     estimated scf accuracy    <       0.00000006 Ry

     iteration #  4     ecut=    90.00 Ry     beta= 0.70
     Davidson diagonalization with overlap
     ethr =  9.65E-11,  avg # of iterations =  4.7

     total cpu time spent up to now is      756.0 secs

     total energy              =    -275.99672295 Ry
     estimated scf accuracy    <       0.00000006 Ry

     iteration #  5     ecut=    90.00 Ry     beta= 0.70
     Davidson diagonalization with overlap
     ethr =  9.24E-11,  avg # of iterations =  3.3

     total cpu time spent up to now is      764.9 secs

     total energy              =    -275.99672297 Ry
     estimated scf accuracy    <          3.2E-09 Ry

     iteration #  6     ecut=    90.00 Ry     beta= 0.70
     Davidson diagonalization with overlap
     ethr =  5.05E-12,  avg # of iterations =  3.8

     total cpu time spent up to now is      773.9 secs

     total energy              =    -275.99672297 Ry
     estimated scf accuracy    <          3.8E-09 Ry

     iteration #  7     ecut=    90.00 Ry     beta= 0.70
     Davidson diagonalization with overlap
     ethr =  5.05E-12,  avg # of iterations =  2.9

     total cpu time spent up to now is      782.1 secs

     End of self-consistent calculation

     Number of k-points >= 100: set verbosity='high' to print the bands.

     highest occupied level (ev):    -2.1609

!    total energy              =    -275.99672297 Ry
     estimated scf accuracy    <          6.4E-11 Ry

     The total energy is the sum of the following terms:
     one-electron contribution =    -211.31739876 Ry
     hartree contribution      =     128.91961766 Ry
     xc contribution           =     -68.06566677 Ry
     ewald contribution        =    -125.53327511 Ry

     convergence has been achieved in   7 iterations

     Forces acting on atoms (cartesian axes, Ry/au):

     atom    1 type  2   force =     0.00000000   -0.00013706   -0.00019765
     atom    2 type  2   force =     0.00000000    0.00013704   -0.00019763
     atom    3 type  2   force =     0.00000000   -0.00013706   -0.00019764
     atom    4 type  2   force =     0.00000000    0.00013706   -0.00019763
     atom    5 type  2   force =     0.00000000   -0.00111483    0.00012881
     atom    6 type  2   force =     0.00000000    0.00111483    0.00012881
     atom    7 type  2   force =     0.00000000   -0.00111483    0.00012881
     atom    8 type  2   force =     0.00000000    0.00111483    0.00012882
     atom    9 type  1   force =     0.00000000   -0.00019324   -0.00048871
     atom   10 type  1   force =     0.00000000    0.00019324   -0.00048873
     atom   11 type  1   force =     0.00000000   -0.00019325   -0.00048871
     atom   12 type  1   force =     0.00000000    0.00019325   -0.00048872
     atom   13 type  1   force =     0.00000000    0.00057295   -0.00002364
     atom   14 type  1   force =     0.00000000   -0.00057294   -0.00002365
     atom   15 type  1   force =     0.00000000    0.00057295   -0.00002364
     atom   16 type  1   force =     0.00000000   -0.00057293   -0.00002363
     atom   17 type  1   force =     0.00044418   -0.00013871    0.00029059
     atom   18 type  1   force =    -0.00044418    0.00013871    0.00029059
     atom   19 type  1   force =     0.00044418    0.00013871    0.00029059
     atom   20 type  1   force =    -0.00044418   -0.00013871    0.00029059
     atom   21 type  1   force =     0.00044418   -0.00013871    0.00029059
     atom   22 type  1   force =    -0.00044418    0.00013871    0.00029059
     atom   23 type  1   force =     0.00044418    0.00013871    0.00029059
     atom   24 type  1   force =    -0.00044418   -0.00013871    0.00029059

     Total force =     0.003178     Total SCF correction =     0.000012


     Computing stress (Cartesian axis) and pressure

          total   stress  (Ry/bohr**3)                   (kbar)     P=       34.14
   0.00022449   0.00000000   0.00000000           33.02        0.00        0.00
[...]
     atom    6 type  2   force =     0.00000000    0.00009386    0.00000706
     atom    7 type  2   force =     0.00000000   -0.00009386    0.00000707
     atom    8 type  2   force =     0.00000000    0.00009386    0.00000705
     atom    9 type  1   force =     0.00000000   -0.00008817   -0.00004409
     atom   10 type  1   force =     0.00000000    0.00008819   -0.00004407
     atom   11 type  1   force =     0.00000000   -0.00008818   -0.00004410
     atom   12 type  1   force =     0.00000000    0.00008817   -0.00004408
     atom   13 type  1   force =     0.00000000    0.00025095    0.00005677
     atom   14 type  1   force =     0.00000000   -0.00025096    0.00005678
     atom   15 type  1   force =     0.00000000    0.00025094    0.00005677
     atom   16 type  1   force =     0.00000000   -0.00025094    0.00005679
     atom   17 type  1   force =     0.00003865    0.00000556   -0.00012091
     atom   18 type  1   force =    -0.00003865   -0.00000557   -0.00012090
     atom   19 type  1   force =     0.00003865   -0.00000557   -0.00012090
     atom   20 type  1   force =    -0.00003865    0.00000556   -0.00012091
     atom   21 type  1   force =     0.00003865    0.00000557   -0.00012091
     atom   22 type  1   force =    -0.00003865   -0.00000556   -0.00012092
     atom   23 type  1   force =     0.00003865   -0.00000556   -0.00012092
     atom   24 type  1   force =    -0.00003865    0.00000557   -0.00012091

     Total force =     0.000840     Total SCF correction =     0.000020


     Computing stress (Cartesian axis) and pressure

          total   stress  (Ry/bohr**3)                   (kbar)     P=       33.21
   0.00022778   0.00000000   0.00000000           33.51        0.00        0.00
   0.00000000   0.00023040   0.00000000            0.00       33.89        0.00
   0.00000000   0.00000000   0.00021902            0.00        0.00       32.22

     Energy error            =      1.0E-06 Ry
     Gradient error          =      2.5E-04 Ry/Bohr

     number of scf cycles    =  36
     number of bfgs steps    =  35

     energy             old  =    -275.9972755829 Ry
     energy             new  =    -275.9972766044 Ry

     CASE: energy            _new < energy            _old

     new trust radius        =       0.0010418295 bohr
     new conv_thr            =       0.0000000010 Ry


ATOMIC_POSITIONS (crystal)
O                0.0000000000        0.6529965872        0.0576082345
O                0.0000000000        0.3470033880        0.5576082019
O                0.5000000000        0.1529966243        0.0576082481
O                0.5000000000        0.8470034013        0.5576082227
O                0.5000000000        0.8199515342        0.9328726297
O                0.5000000000        0.1800484852        0.4328726134
O                0.0000000000        0.3199514980        0.9328726015
O                0.0000000000        0.6800484740        0.4328726474
H                0.0000000000        0.6602421851        0.2077754288
H                0.0000000000        0.3397577638        0.7077754025
H                0.5000000000        0.1602422325        0.2077754508
H                0.5000000000        0.8397578237        0.7077754227
H                0.0000000000        0.5171697009        0.0158122904
H                0.0000000000        0.4828302825        0.5158122907
H                0.5000000000        0.0171697378        0.0158123211
H                0.5000000000        0.9828302802        0.5158122616
H                0.6973771260        0.7501227985        0.9819657241
H                0.3026228598        0.2498772178        0.4819657062
H                0.6973771402        0.2498772178        0.4819657062
H                0.3026228740        0.7501227985        0.9819657241
H                0.1973771336        0.2501227798        0.9819657218
H                0.8026228658        0.7498772047        0.4819657471
H                0.1973771342        0.7498772047        0.4819657471
H                0.8026228664        0.2501227798        0.9819657218



     Writing config-only to output data dir ./iceIh/iceIh.save/ :
     XML data file
     NEW-OLD atomic charge density approx. for the potential

     total cpu time spent up to now is     2651.6 secs

     per-process dynamical memory:    55.4 Mb

     Self-consistent Calculation

     iteration #  1     ecut=    90.00 Ry     beta= 0.70
     Davidson diagonalization with overlap
     ethr =  1.00E-06,  avg # of iterations =  2.0

     Threshold (ethr) on eigenvalues was too large:
     Diagonalizing with lowered threshold

     Davidson diagonalization with overlap
     ethr =  7.16E-10,  avg # of iterations =  4.7

     total cpu time spent up to now is     2671.3 secs

     total energy              =    -275.99727723 Ry
     estimated scf accuracy    <       0.00000076 Ry

     iteration #  2     ecut=    90.00 Ry     beta= 0.70
     Davidson diagonalization with overlap
     ethr =  1.19E-09,  avg # of iterations =  2.0

     total cpu time spent up to now is     2678.6 secs

     total energy              =    -275.99727734 Ry
     estimated scf accuracy    <       0.00000004 Ry

     iteration #  3     ecut=    90.00 Ry     beta= 0.70
     Davidson diagonalization with overlap
     ethr =  6.23E-11,  avg # of iterations =  2.4

     total cpu time spent up to now is     2687.4 secs

     total energy              =    -275.99727735 Ry
     estimated scf accuracy    <          8.9E-09 Ry

     iteration #  4     ecut=    90.00 Ry     beta= 0.70
     Davidson diagonalization with overlap
     ethr =  1.40E-11,  avg # of iterations =  2.1

     total cpu time spent up to now is     2695.2 secs

     End of self-consistent calculation

     Number of k-points >= 100: set verbosity='high' to print the bands.

     highest occupied level (ev):    -2.1807

!    total energy              =    -275.99727735 Ry
     estimated scf accuracy    <          6.4E-10 Ry

     The total energy is the sum of the following terms:
     one-electron contribution =    -210.94517254 Ry
     hartree contribution      =     128.72260796 Ry
     xc contribution           =     -68.06107696 Ry
     ewald contribution        =    -125.71363581 Ry

     convergence has been achieved in   4 iterations

     Forces acting on atoms (cartesian axes, Ry/au):

     atom    1 type  2   force =     0.00000000   -0.00003880    0.00011821
     atom    2 type  2   force =     0.00000000    0.00003876    0.00011827
     atom    3 type  2   force =     0.00000000   -0.00003880    0.00011821
     atom    4 type  2   force =     0.00000000    0.00003878    0.00011825
     atom    5 type  2   force =     0.00000000   -0.00006251    0.00000032
     atom    6 type  2   force =     0.00000000    0.00006251    0.00000033
     atom    7 type  2   force =     0.00000000   -0.00006249    0.00000032
     atom    8 type  2   force =     0.00000000    0.00006252    0.00000032
     atom    9 type  1   force =     0.00000000   -0.00005926    0.00005647
     atom   10 type  1   force =     0.00000000    0.00005927    0.00005644
     atom   11 type  1   force =     0.00000000   -0.00005926    0.00005645
     atom   12 type  1   force =     0.00000000    0.00005925    0.00005645
     atom   13 type  1   force =     0.00000000    0.00015204    0.00000354
     atom   14 type  1   force =     0.00000000   -0.00015201    0.00000353
     atom   15 type  1   force =     0.00000000    0.00015203    0.00000353
     atom   16 type  1   force =     0.00000000   -0.00015201    0.00000355
     atom   17 type  1   force =     0.00003683   -0.00000771   -0.00008927
     atom   18 type  1   force =    -0.00003682    0.00000769   -0.00008927
     atom   19 type  1   force =     0.00003682    0.00000769   -0.00008927
     atom   20 type  1   force =    -0.00003683   -0.00000771   -0.00008927
     atom   21 type  1   force =     0.00003683   -0.00000770   -0.00008927
     atom   22 type  1   force =    -0.00003682    0.00000770   -0.00008928
     atom   23 type  1   force =     0.00003682    0.00000770   -0.00008928
     atom   24 type  1   force =    -0.00003683   -0.00000770   -0.00008927

     Total force =     0.000521     Total SCF correction =     0.000056
     SCF correction compared to forces is large: reduce conv_thr to get better values


     Computing stress (Cartesian axis) and pressure

          total   stress  (Ry/bohr**3)                   (kbar)     P=       33.29
   0.00022790   0.00000000   0.00000000           33.53        0.00        0.00
   0.00000000   0.00023102  -0.00000000            0.00       33.98       -0.00
   0.00000000  -0.00000000   0.00022005            0.00       -0.00       32.37

     Energy error            =      7.5E-07 Ry
     Gradient error          =      1.5E-04 Ry/Bohr

     number of scf cycles    =  37
     number of bfgs steps    =  36

     energy             old  =    -275.9972766044 Ry
     energy             new  =    -275.9972773541 Ry

     CASE: energy            _new < energy            _old

     new trust radius        =       0.0011460125 bohr
     new conv_thr            =       0.0000000010 Ry


ATOMIC_POSITIONS (crystal)
O                0.0000000000        0.6529355138        0.0576273968
O                0.0000000000        0.3470644603        0.5576273695
O                0.5000000000        0.1529355506        0.0576274086
O                0.5000000000        0.8470644735        0.5576273879
O                0.5000000000        0.8198733200        0.9328534863
O                0.5000000000        0.1801266989        0.4328534696
O                0.0000000000        0.3198732866        0.9328534577
O                0.0000000000        0.6801266873        0.4328535016
H                0.0000000000        0.6602175268        0.2077907532
H                0.0000000000        0.3397824246        0.7077907275
H                0.5000000000        0.1602175750        0.2077907723
H                0.5000000000        0.8397824799        0.7077907462
H                0.0000000000        0.5171187278        0.0158621885
H                0.0000000000        0.4828812571        0.5158621889
H                0.5000000000        0.0171187635        0.0158622181
H                0.5000000000        0.9828812549        0.5158621622
H                0.6973750391        0.7500448123        0.9819331045
H                0.3026249480        0.2499552027        0.4819330866
H                0.6973750520        0.2499552027        0.4819330866
H                0.3026249609        0.7500448123        0.9819331045
H                0.1973750467        0.2500447954        0.9819331001
H                0.8026249539        0.7499551893        0.4819331244
H                0.1973750461        0.7499551893        0.4819331244
H                0.8026249533        0.2500447954        0.9819331001



     Writing config-only to output data dir ./iceIh/iceIh.save/ :
     XML data file
     NEW-OLD atomic charge density approx. for the potential

     total cpu time spent up to now is     2702.9 secs

     per-process dynamical memory:    55.4 Mb

     Self-consistent Calculation

     iteration #  1     ecut=    90.00 Ry     beta= 0.70
     Davidson diagonalization with overlap
     ethr =  1.00E-06,  avg # of iterations =  2.0

     Threshold (ethr) on eigenvalues was too large:
     Diagonalizing with lowered threshold

     Davidson diagonalization with overlap
     ethr =  8.07E-10,  avg # of iterations =  4.7

     total cpu time spent up to now is     2722.7 secs

     total energy              =    -275.99727765 Ry
     estimated scf accuracy    <       0.00000087 Ry

     iteration #  2     ecut=    90.00 Ry     beta= 0.70
     Davidson diagonalization with overlap
     ethr =  1.36E-09,  avg # of iterations =  2.0

     total cpu time spent up to now is     2729.7 secs

     total energy              =    -275.99727778 Ry
     estimated scf accuracy    <       0.00000004 Ry

     iteration #  3     ecut=    90.00 Ry     beta= 0.70
     Davidson diagonalization with overlap
     ethr =  5.79E-11,  avg # of iterations =  2.4

     total cpu time spent up to now is     2738.2 secs

     total energy              =    -275.99727779 Ry
     estimated scf accuracy    <          5.1E-09 Ry

     iteration #  4     ecut=    90.00 Ry     beta= 0.70
     Davidson diagonalization with overlap
     ethr =  8.04E-12,  avg # of iterations =  2.6

     total cpu time spent up to now is     2746.8 secs

     End of self-consistent calculation

     Number of k-points >= 100: set verbosity='high' to print the bands.

     highest occupied level (ev):    -2.1811

!    total energy              =    -275.99727779 Ry
     estimated scf accuracy    <          6.7E-10 Ry

     The total energy is the sum of the following terms:
     one-electron contribution =    -210.94543843 Ry
     hartree contribution      =     128.72233294 Ry
     xc contribution           =     -68.06141516 Ry
     ewald contribution        =    -125.71275713 Ry

     convergence has been achieved in   4 iterations

     Forces acting on atoms (cartesian axes, Ry/au):

     atom    1 type  2   force =     0.00000000    0.00000436    0.00007495
     atom    2 type  2   force =     0.00000000   -0.00000436    0.00007495
     atom    3 type  2   force =     0.00000000    0.00000435    0.00007494
     atom    4 type  2   force =     0.00000000   -0.00000435    0.00007495
     atom    5 type  2   force =     0.00000000   -0.00001704   -0.00000535
     atom    6 type  2   force =     0.00000000    0.00001704   -0.00000535
     atom    7 type  2   force =     0.00000000   -0.00001703   -0.00000535
     atom    8 type  2   force =     0.00000000    0.00001704   -0.00000536
     atom    9 type  1   force =     0.00000000   -0.00003925    0.00009355
     atom   10 type  1   force =     0.00000000    0.00003926    0.00009356
     atom   11 type  1   force =     0.00000000   -0.00003926    0.00009354
     atom   12 type  1   force =     0.00000000    0.00003925    0.00009356
     atom   13 type  1   force =     0.00000000    0.00007207   -0.00003456
     atom   14 type  1   force =     0.00000000   -0.00007207   -0.00003456
     atom   15 type  1   force =     0.00000000    0.00007205   -0.00003457
     atom   16 type  1   force =     0.00000000   -0.00007205   -0.00003454
     atom   17 type  1   force =     0.00004243   -0.00001762   -0.00006429
     atom   18 type  1   force =    -0.00004242    0.00001761   -0.00006429
     atom   19 type  1   force =     0.00004242    0.00001761   -0.00006429
     atom   20 type  1   force =    -0.00004243   -0.00001762   -0.00006429
     atom   21 type  1   force =     0.00004242   -0.00001761   -0.00006430
     atom   22 type  1   force =    -0.00004242    0.00001762   -0.00006430
     atom   23 type  1   force =     0.00004242    0.00001762   -0.00006430
     atom   24 type  1   force =    -0.00004242   -0.00001761   -0.00006430

     Total force =     0.000375     Total SCF correction =     0.000040
     SCF correction compared to forces is large: reduce conv_thr to get better values


     Computing stress (Cartesian axis) and pressure

          total   stress  (Ry/bohr**3)                   (kbar)     P=       33.33
   0.00022794   0.00000000   0.00000000           33.53        0.00        0.00
   0.00000000   0.00023128   0.00000000            0.00       34.02        0.00
   0.00000000   0.00000000   0.00022043            0.00        0.00       32.43

     Energy error            =      4.4E-07 Ry
     Gradient error          =      9.4E-05 Ry/Bohr

     bfgs converged in  38 scf cycles and  37 bfgs steps
     (criteria: energy <  1.0E-04 Ry, force <  1.0E-04 Ry/Bohr)

     End of BFGS Geometry Optimization

     Final energy             =    -275.9972777898 Ry

     File ./iceIh/iceIh.bfgs deleted, as requested
Begin final coordinates

ATOMIC_POSITIONS (crystal)
O                0.0000000000        0.6529355138        0.0576273968
O                0.0000000000        0.3470644603        0.5576273695
O                0.5000000000        0.1529355506        0.0576274086
O                0.5000000000        0.8470644735        0.5576273879
O                0.5000000000        0.8198733200        0.9328534863
O                0.5000000000        0.1801266989        0.4328534696
O                0.0000000000        0.3198732866        0.9328534577
O                0.0000000000        0.6801266873        0.4328535016
H                0.0000000000        0.6602175268        0.2077907532
H                0.0000000000        0.3397824246        0.7077907275
H                0.5000000000        0.1602175750        0.2077907723
H                0.5000000000        0.8397824799        0.7077907462
H                0.0000000000        0.5171187278        0.0158621885
H                0.0000000000        0.4828812571        0.5158621889
H                0.5000000000        0.0171187635        0.0158622181
H                0.5000000000        0.9828812549        0.5158621622
H                0.6973750391        0.7500448123        0.9819331045
H                0.3026249480        0.2499552027        0.4819330866
H                0.6973750520        0.2499552027        0.4819330866
H                0.3026249609        0.7500448123        0.9819331045
H                0.1973750467        0.2500447954        0.9819331001
H                0.8026249539        0.7499551893        0.4819331244
H                0.1973750461        0.7499551893        0.4819331244
H                0.8026249533        0.2500447954        0.9819331001
End final coordinates



     Writing all to output data dir ./iceIh/iceIh.save/ :
     XML data file, charge density, pseudopotentials, collected wavefunctions

     init_run     :      3.98s CPU      6.34s WALL (       1 calls)
     electrons    :   2405.88s CPU   2450.52s WALL (      38 calls)
     update_pot   :      0.43s CPU      0.46s WALL (      37 calls)
     forces       :     18.40s CPU     18.48s WALL (      38 calls)
     stress       :    267.33s CPU    267.50s WALL (      38 calls)

     Called by init_run:
     wfcinit      :      3.47s CPU      5.74s WALL (       1 calls)
     potinit      :      0.01s CPU      0.03s WALL (       1 calls)
     hinit0       :      0.42s CPU      0.48s WALL (       1 calls)

     Called by electrons:
     c_bands      :   2151.83s CPU   2191.60s WALL (     269 calls)
     sum_band     :    250.21s CPU    253.09s WALL (     269 calls)
     v_of_rho     :      2.65s CPU      2.68s WALL (     286 calls)
     newd         :      0.50s CPU      0.51s WALL (     286 calls)
     mix_rho      :      0.36s CPU      0.38s WALL (     269 calls)

     Called by c_bands:
     init_us_2    :     30.56s CPU     31.71s WALL (   70725 calls)
     cegterg      :   2074.19s CPU   2095.83s WALL (   30935 calls)

     Called by *egterg:
     cdiaghg      :    206.25s CPU    209.48s WALL (  117741 calls)
     h_psi        :   1537.20s CPU   1556.22s WALL (  124526 calls)
     s_psi        :     60.84s CPU     61.31s WALL (  124526 calls)
     g_psi        :      5.57s CPU      5.59s WALL (   93476 calls)

     Called by h_psi:
     h_psi:calbec :     93.66s CPU     94.57s WALL (  124526 calls)
     vloc_psi     :   1369.73s CPU   1387.07s WALL (  124526 calls)
     add_vuspsi   :     64.16s CPU     64.74s WALL (  124526 calls)

     General routines
     calbec       :    133.13s CPU    134.46s WALL (  177311 calls)
     fft          :      1.79s CPU      1.87s WALL (    3508 calls)
     ffts         :      0.11s CPU      0.11s WALL (     269 calls)
     fftw         :   1431.58s CPU   1449.19s WALL ( 7256526 calls)

     Parallel routines

     PWSCF        :  45m 4.40s CPU  45m58.48s WALL


   This run was terminated on:  17:40: 3  31Mar2026            

=------------------------------------------------------------------------------=
   JOB DONE.
=------------------------------------------------------------------------------=
