
     Program PWSCF v.7.3.1 starts on 23Mar2026 at 17:53: 5 

     This program is part of the open-source Quantum ESPRESSO suite
     for quantum simulation of materials; please cite
         "P. Giannozzi et al., J. Phys.:Condens. Matter 21 395502 (2009);
         "P. Giannozzi et al., J. Phys.:Condens. Matter 29 465901 (2017);
         "P. Giannozzi et al., J. Chem. Phys. 152 154105 (2020);
          URL http://www.quantum-espresso.org", 
     in publications or presentations arising from this work. More details at
     http://www.quantum-espresso.org/quote

     Parallel version (MPI), running on   128 processors

     MPI processes distributed on     1 nodes
     237841 MiB available memory on the printing compute node when the environment starts

     Waiting for input...
     Reading input from standard input

     Current dimensions of program PWSCF are:
     Max number of different atomic species (ntypx) = 10
     Max number of k-points (npk) =  40000
     Max angular momentum in pseudopotentials (lmaxx) =  4
     Found identity + ( -0.5000  0.5000 -0.0000) symmetry
     This is a supercell, fractional translations are disabled

     K-points division:     npool     =       4
     R & G space division:  proc/nbgrp/npool/nimage =      32
     Subspace diagonalization in iterative solution of the eigenvalue problem:
     a serial algorithm will be used


     Parallelization info
     --------------------
     sticks:   dense  smooth     PW     G-vecs:    dense   smooth      PW
     Min          97      97     27                 5067     5067     741
     Max          98      98     28                 5074     5074     745
     Sum        3109    3109    867               162185   162185   23739

     Using Slab Decomposition



     bravais-lattice index     =            8
     lattice parameter (alat)  =       7.9290  a.u.
     unit-cell volume          =    1405.4598 (a.u.)^3
     number of atoms/cell      =           24
     number of atomic types    =            2
     number of electrons       =        64.00
     number of Kohn-Sham states=           32
     kinetic-energy cutoff     =      90.0000  Ry
     charge density cutoff     =     360.0000  Ry
     scf convergence threshold =      1.0E-07
     mixing beta               =       0.7000
     number of iterations used =            8  plain     mixing
     Exchange-correlation=  SLA  PW   PBE  PBE
                           (   1   4   3   4   0   0   0)

     celldm(1)=   7.929033  celldm(2)=   1.732119  celldm(3)=   1.627721
     celldm(4)=   0.000000  celldm(5)=   0.000000  celldm(6)=   0.000000

     crystal axes: (cart. coord. in units of alat)
               a(1) = (   1.000000   0.000000   0.000000 )  
               a(2) = (   0.000000   1.732119   0.000000 )  
               a(3) = (   0.000000   0.000000   1.627721 )  

     reciprocal axes: (cart. coord. in units 2 pi/alat)
               b(1) = (  1.000000  0.000000  0.000000 )  
               b(2) = (  0.000000  0.577328  0.000000 )  
               b(3) = (  0.000000  0.000000  0.614356 )  


     PseudoPot. # 1 for H  read from file:
     ./H.pbe-van_ak.UPF
     MD5 check sum: 077eb6d537518a38cb46c6de387227b7
     Pseudo is Ultrasoft, Zval =  1.0
     Generated by new atomic code, or converted to UPF format
     Using radial grid of  615 points,  1 beta functions with: 
                l(1) =   0
     Q(r) pseudized with  8 coefficients,  rinner =    0.800

     PseudoPot. # 2 for O  read from file:
     ./O.pbe-van_ak.UPF
     MD5 check sum: 78c19812648e8988a0fe644b0f25305e
     Pseudo is Ultrasoft, Zval =  6.0
     Generated by new atomic code, or converted to UPF format
     Using radial grid of  737 points,  4 beta functions with: 
                l(1) =   0
                l(2) =   0
                l(3) =   1
                l(4) =   1
     Q(r) pseudized with  8 coefficients,  rinner =    0.800   0.800   0.800


     atomic species   valence    mass     pseudopotential
     H                 1.00     1.00800     H ( 1.00)
     O                 6.00    16.00000     O ( 1.00)

      2 Sym. Ops. (no inversion) found



   Cartesian axes

     site n.     atom                  positions (alat units)
         1        O      tau(   1) = (   0.0000000   1.1484866   0.0984416  )
         2        O      tau(   2) = (   0.0000000   0.5836324   0.9123021  )
         3        O      tau(   3) = (   0.5000000   0.2824271   0.0984415  )
         4        O      tau(   4) = (   0.5000000   1.4496920   0.9123021  )
         5        O      tau(   5) = (   0.5000000   1.4402433   1.5187349  )
         6        O      tau(   6) = (   0.5000000   0.2918758   0.7048744  )
         7        O      tau(   7) = (   0.0000000   0.5741838   1.5187348  )
         8        O      tau(   8) = (   0.0000000   1.1579353   0.7048743  )
         9        H      tau(   9) = (   0.0000000   1.1487418   0.3216685  )
        10        H      tau(  10) = (   0.0000000   0.5833772   1.1355290  )
        11        H      tau(  11) = (   0.5000000   0.2826823   0.3216685  )
        12        H      tau(  12) = (   0.5000000   1.4494367   1.1355290  )
        13        H      tau(  13) = (   0.0000000   0.9333594   0.0315143  )
        14        H      tau(  14) = (   0.0000000   0.7987597   0.8453748  )
        15        H      tau(  15) = (   0.5000000   0.0672998   0.0315143  )
        16        H      tau(  16) = (   0.5000000   1.6648192   0.8453748  )
        17        H      tau(  17) = (   0.6820699   1.3365463   1.6012691  )
        18        H      tau(  18) = (   0.3179301   0.3955728   0.7874086  )
        19        H      tau(  19) = (   0.6820699   0.3955728   0.7874086  )
        20        H      tau(  20) = (   0.3179301   1.3365463   1.6012691  )
        21        H      tau(  21) = (   0.1820699   0.4704867   1.6012691  )
        22        H      tau(  22) = (   0.8179301   1.2616323   0.7874086  )
        23        H      tau(  23) = (   0.1820699   1.2616323   0.7874086  )
        24        H      tau(  24) = (   0.8179301   0.4704867   1.6012691  )

     number of k points=   460

     Number of k-points >= 100: set verbosity='high' to print them.

     Dense  grid:   162185 G-vectors     FFT dimensions: (  48,  90,  80)

     Estimated max dynamical RAM per process >      42.73 MB

     Estimated total dynamical RAM >       5.23 GB

     Initial potential from superposition of free atoms

     starting charge      63.9998, renormalised to      64.0000
     Starting wfcs are   48 randomized atomic wfcs

     total cpu time spent up to now is        4.4 secs

     per-process dynamical memory:    51.4 Mb

     Self-consistent Calculation

     iteration #  1     ecut=    90.00 Ry     beta= 0.70
     Davidson diagonalization with overlap
     ethr =  1.00E-02,  avg # of iterations =  2.0

     total cpu time spent up to now is       12.2 secs

     total energy              =    -274.75154332 Ry
     estimated scf accuracy    <       2.90826724 Ry

     iteration #  2     ecut=    90.00 Ry     beta= 0.70
     Davidson diagonalization with overlap
     ethr =  4.54E-03,  avg # of iterations =  3.0

     total cpu time spent up to now is       22.1 secs

     total energy              =    -275.69873479 Ry
     estimated scf accuracy    <       1.22018227 Ry

     iteration #  3     ecut=    90.00 Ry     beta= 0.70
     Davidson diagonalization with overlap
     ethr =  1.91E-03,  avg # of iterations =  2.0

     total cpu time spent up to now is       29.7 secs

     total energy              =    -275.84275896 Ry
     estimated scf accuracy    <       0.04928161 Ry

     iteration #  4     ecut=    90.00 Ry     beta= 0.70
     Davidson diagonalization with overlap
     ethr =  7.70E-05,  avg # of iterations =  4.0

     total cpu time spent up to now is       40.8 secs

     total energy              =    -275.87480899 Ry
     estimated scf accuracy    <       0.06077711 Ry

     iteration #  5     ecut=    90.00 Ry     beta= 0.70
     Davidson diagonalization with overlap
     ethr =  7.70E-05,  avg # of iterations =  2.0

     total cpu time spent up to now is       48.5 secs

     total energy              =    -275.87871820 Ry
     estimated scf accuracy    <       0.00682098 Ry

     iteration #  6     ecut=    90.00 Ry     beta= 0.70
     Davidson diagonalization with overlap
     ethr =  1.07E-05,  avg # of iterations =  3.0

     total cpu time spent up to now is       57.5 secs

     total energy              =    -275.88055778 Ry
     estimated scf accuracy    <       0.00012898 Ry

     iteration #  7     ecut=    90.00 Ry     beta= 0.70
     Davidson diagonalization with overlap
     ethr =  2.02E-07,  avg # of iterations =  4.9

     total cpu time spent up to now is       69.8 secs

     total energy              =    -275.88075532 Ry
     estimated scf accuracy    <       0.00018882 Ry

     iteration #  8     ecut=    90.00 Ry     beta= 0.70
     Davidson diagonalization with overlap
     ethr =  2.02E-07,  avg # of iterations =  1.9

     total cpu time spent up to now is       76.5 secs

     total energy              =    -275.88075258 Ry
     estimated scf accuracy    <       0.00003274 Ry

     iteration #  9     ecut=    90.00 Ry     beta= 0.70
     Davidson diagonalization with overlap
     ethr =  5.12E-08,  avg # of iterations =  2.0

     total cpu time spent up to now is       84.6 secs

     total energy              =    -275.88076003 Ry
     estimated scf accuracy    <       0.00000062 Ry

     iteration # 10     ecut=    90.00 Ry     beta= 0.70
     Davidson diagonalization with overlap
     ethr =  9.75E-10,  avg # of iterations =  4.4

     total cpu time spent up to now is       95.2 secs

     total energy              =    -275.88076048 Ry
     estimated scf accuracy    <       0.00000016 Ry

     iteration # 11     ecut=    90.00 Ry     beta= 0.70
     Davidson diagonalization with overlap
     ethr =  2.46E-10,  avg # of iterations =  2.0

     total cpu time spent up to now is      102.2 secs

     End of self-consistent calculation

     Number of k-points >= 100: set verbosity='high' to print the bands.

     highest occupied level (ev):    -2.4997

!    total energy              =    -275.88076048 Ry
     estimated scf accuracy    <       0.00000002 Ry

     The total energy is the sum of the following terms:
     one-electron contribution =    -221.39493687 Ry
     hartree contribution      =     133.30268622 Ry
     xc contribution           =     -68.89265099 Ry
     ewald contribution        =    -118.89585884 Ry

     convergence has been achieved in  11 iterations

     Forces acting on atoms (cartesian axes, Ry/au):

     atom    1 type  2   force =     0.00000000    0.10221943   -0.09187821
     atom    2 type  2   force =     0.00000000   -0.10222023   -0.09187732
     atom    3 type  2   force =     0.00000000    0.10222051   -0.09187784
     atom    4 type  2   force =     0.00000000   -0.10221982   -0.09187780
     atom    5 type  2   force =     0.00000000    0.09902506   -0.06892474
     atom    6 type  2   force =     0.00000000   -0.09902330   -0.06892366
     atom    7 type  2   force =     0.00000000    0.09902309   -0.06892330
     atom    8 type  2   force =     0.00000000   -0.09902530   -0.06892454
     atom    9 type  1   force =     0.00000000    0.00435268    0.12819399
     atom   10 type  1   force =     0.00000000   -0.00435266    0.12819560
     atom   11 type  1   force =     0.00000000    0.00435278    0.12819506
     atom   12 type  1   force =     0.00000000   -0.00435267    0.12819403
     atom   13 type  1   force =     0.00000000   -0.10092361   -0.03961560
     atom   14 type  1   force =     0.00000000    0.10092288   -0.03961501
     atom   15 type  1   force =     0.00000000   -0.10092248   -0.03961495
     atom   16 type  1   force =     0.00000000    0.10092334   -0.03961538
     atom   17 type  1   force =     0.08887685   -0.05312551    0.03611115
     atom   18 type  1   force =    -0.08887672    0.05312551    0.03611127
     atom   19 type  1   force =     0.08887672    0.05312551    0.03611127
     atom   20 type  1   force =    -0.08887685   -0.05312551    0.03611115
     atom   21 type  1   force =     0.08887669   -0.05312536    0.03611122
     atom   22 type  1   force =    -0.08887692    0.05312551    0.03611119
     atom   23 type  1   force =     0.08887692    0.05312551    0.03611119
     atom   24 type  1   force =    -0.08887669   -0.05312536    0.03611122

     Total force =     0.585509     Total SCF correction =     0.000098


     Computing stress (Cartesian axis) and pressure

          total   stress  (Ry/bohr**3)                   (kbar)     P=      164.25
   0.00103075   0.00000000   0.00000000          151.63        0.00        0.00
   0.00000000   0.00108340  -0.00000000            0.00      159.37       -0.00
   0.00000000  -0.00000000   0.00123549            0.00       -0.00      181.75


     Writing all to output data dir ./iceIh/iceIh.save/ :
     XML data file, charge density, pseudopotentials, collected wavefunctions

     init_run     :      4.07s CPU      4.15s WALL (       1 calls)
     electrons    :     96.30s CPU     97.91s WALL (       1 calls)
     forces       :      0.49s CPU      0.50s WALL (       1 calls)
     stress       :      7.22s CPU      7.23s WALL (       1 calls)

     Called by init_run:
     wfcinit      :      3.55s CPU      3.60s WALL (       1 calls)
     potinit      :      0.03s CPU      0.04s WALL (       1 calls)
     hinit0       :      0.42s CPU      0.42s WALL (       1 calls)

     Called by electrons:
     c_bands      :     85.79s CPU     87.20s WALL (      11 calls)
     sum_band     :     10.33s CPU     10.44s WALL (      11 calls)
     v_of_rho     :      0.13s CPU      0.13s WALL (      12 calls)
     newd         :      0.02s CPU      0.03s WALL (      12 calls)
     mix_rho      :      0.02s CPU      0.03s WALL (      11 calls)

     Called by c_bands:
     init_us_2    :      1.29s CPU      1.33s WALL (    2875 calls)
     cegterg      :     83.03s CPU     83.91s WALL (    1265 calls)

     Called by *egterg:
     cdiaghg      :      8.22s CPU      8.27s WALL (    4844 calls)
     h_psi        :     64.47s CPU     65.26s WALL (    4959 calls)
     s_psi        :      2.56s CPU      2.59s WALL (    4959 calls)
     g_psi        :      0.23s CPU      0.23s WALL (    3579 calls)

     Called by h_psi:
     h_psi:calbec :      3.85s CPU      3.89s WALL (    4959 calls)
     vloc_psi     :     57.45s CPU     58.16s WALL (    4959 calls)
     add_vuspsi   :      2.72s CPU      2.76s WALL (    4959 calls)

     General routines
     calbec       :      5.17s CPU      5.23s WALL (    6799 calls)
     fft          :      0.46s CPU      0.47s WALL (     140 calls)
     ffts         :      0.01s CPU      0.01s WALL (      11 calls)
     fftw         :     60.13s CPU     60.85s WALL (  302096 calls)

     Parallel routines

     PWSCF        :   1m50.30s CPU   1m59.51s WALL


   This run was terminated on:  17:55: 4  23Mar2026            

=------------------------------------------------------------------------------=
   JOB DONE.
=------------------------------------------------------------------------------=
