
     Program PWSCF v.7.3.1 starts on 31Mar2026 at 18:27: 5 

     This program is part of the open-source Quantum ESPRESSO suite
     for quantum simulation of materials; please cite
         "P. Giannozzi et al., J. Phys.:Condens. Matter 21 395502 (2009);
         "P. Giannozzi et al., J. Phys.:Condens. Matter 29 465901 (2017);
         "P. Giannozzi et al., J. Chem. Phys. 152 154105 (2020);
          URL http://www.quantum-espresso.org", 
     in publications or presentations arising from this work. More details at
     http://www.quantum-espresso.org/quote

     Parallel version (MPI), running on   128 processors

     MPI processes distributed on     1 nodes
     495869 MiB available memory on the printing compute node when the environment starts

     Waiting for input...
     Reading input from standard input

     Current dimensions of program PWSCF are:
     Max number of different atomic species (ntypx) = 10
     Max number of k-points (npk) =  40000
     Max angular momentum in pseudopotentials (lmaxx) =  4
     Found identity + ( -0.5000 -0.5000  0.0000) symmetry
     This is a supercell, fractional translations are disabled

     K-points division:     npool     =       4
     R & G space division:  proc/nbgrp/npool/nimage =      32
     Subspace diagonalization in iterative solution of the eigenvalue problem:
     a serial algorithm will be used


     Parallelization info
     --------------------
     sticks:   dense  smooth     PW     G-vecs:    dense   smooth      PW
     Min          97      97     27                 5093     5093     745
     Max          98      98     28                 5102     5102     748
     Sum        3113    3113    867               163047   163047   23883

     Using Slab Decomposition



     bravais-lattice index     =            8
     lattice parameter (alat)  =       7.9460  a.u.
     unit-cell volume          =    1414.5272 (a.u.)^3
     number of atoms/cell      =           24
     number of atomic types    =            2
     number of electrons       =        64.00
     number of Kohn-Sham states=           32
     kinetic-energy cutoff     =      90.0000  Ry
     charge density cutoff     =     360.0000  Ry
     scf convergence threshold =      1.0E-07
     mixing beta               =       0.7000
     number of iterations used =            8  plain     mixing
     energy convergence thresh.=      1.0E-04
     force convergence thresh. =      1.0E-04
     Exchange-correlation=  SLA  PW   PBE  PBE
                           (   1   4   3   4   0   0   0)
     nstep                     =           50


     celldm(1)=   7.946048  celldm(2)=   1.732119  celldm(3)=   1.627721
     celldm(4)=   0.000000  celldm(5)=   0.000000  celldm(6)=   0.000000

     crystal axes: (cart. coord. in units of alat)
               a(1) = (   1.000000   0.000000   0.000000 )  
               a(2) = (   0.000000   1.732119   0.000000 )  
               a(3) = (   0.000000   0.000000   1.627721 )  

     reciprocal axes: (cart. coord. in units 2 pi/alat)
               b(1) = (  1.000000  0.000000  0.000000 )  
               b(2) = (  0.000000  0.577328  0.000000 )  
               b(3) = (  0.000000  0.000000  0.614356 )  


     PseudoPot. # 1 for H  read from file:
     ./H.pbe-van_ak.UPF
     MD5 check sum: 077eb6d537518a38cb46c6de387227b7
     Pseudo is Ultrasoft, Zval =  1.0
     Generated by new atomic code, or converted to UPF format
     Using radial grid of  615 points,  1 beta functions with: 
                l(1) =   0
     Q(r) pseudized with  8 coefficients,  rinner =    0.800

     PseudoPot. # 2 for O  read from file:
     ./O.pbe-van_ak.UPF
     MD5 check sum: 78c19812648e8988a0fe644b0f25305e
     Pseudo is Ultrasoft, Zval =  6.0
     Generated by new atomic code, or converted to UPF format
     Using radial grid of  737 points,  4 beta functions with: 
                l(1) =   0
                l(2) =   0
                l(3) =   1
                l(4) =   1
     Q(r) pseudized with  8 coefficients,  rinner =    0.800   0.800   0.800


     atomic species   valence    mass     pseudopotential
     H                 1.00     1.00800     H ( 1.00)
     O                 6.00    16.00000     O ( 1.00)

      2 Sym. Ops. (no inversion) found



   Cartesian axes

     site n.     atom                  positions (alat units)
         1        O      tau(   1) = (   0.0000000   1.1515127   0.1027092  )
         2        O      tau(   2) = (   0.0000000   0.5806063   0.9165697  )
         3        O      tau(   3) = (   0.5000000   0.2854532   0.1027092  )
         4        O      tau(   4) = (   0.5000000   1.4466659   0.9165697  )
         5        O      tau(   5) = (   0.5000000   1.4298643   1.5250118  )
         6        O      tau(   6) = (   0.5000000   0.3022548   0.7111513  )
         7        O      tau(   7) = (   0.0000000   0.5638048   1.5250118  )
         8        O      tau(   8) = (   0.0000000   1.1683143   0.7111513  )
         9        H      tau(   9) = (   0.0000000   1.1494343   0.3195216  )
        10        H      tau(  10) = (   0.0000000   0.5826848   1.1333822  )
        11        H      tau(  11) = (   0.5000000   0.2833747   0.3195216  )
        12        H      tau(  12) = (   0.5000000   1.4487443   1.1333822  )
        13        H      tau(  13) = (   0.0000000   0.9289355   0.0297873  )
        14        H      tau(  14) = (   0.0000000   0.8031836   0.8436478  )
        15        H      tau(  15) = (   0.5000000   0.0628759   0.0297873  )
        16        H      tau(  16) = (   0.5000000   1.6692431   0.8436478  )
        17        H      tau(  17) = (   0.6766000   1.3420459   1.5979337  )
        18        H      tau(  18) = (   0.3234000   0.3900732   0.7840732  )
        19        H      tau(  19) = (   0.6766000   0.3900732   0.7840732  )
        20        H      tau(  20) = (   0.3234000   1.3420459   1.5979337  )
        21        H      tau(  21) = (   0.1766000   0.4759863   1.5979337  )
        22        H      tau(  22) = (   0.8234000   1.2561327   0.7840732  )
        23        H      tau(  23) = (   0.1766000   1.2561327   0.7840732  )
        24        H      tau(  24) = (   0.8234000   0.4759863   1.5979337  )

     number of k points=   460

     Number of k-points >= 100: set verbosity='high' to print them.

     Dense  grid:   163047 G-vectors     FFT dimensions: (  48,  90,  80)

     Estimated max dynamical RAM per process >      42.98 MB

     Estimated total dynamical RAM >       5.26 GB

     Initial potential from superposition of free atoms

     starting charge      63.9998, renormalised to      64.0000
     Starting wfcs are   48 randomized atomic wfcs

     total cpu time spent up to now is        4.4 secs

     per-process dynamical memory:    50.3 Mb

     Self-consistent Calculation

     iteration #  1     ecut=    90.00 Ry     beta= 0.70
     Davidson diagonalization with overlap
     ethr =  1.00E-02,  avg # of iterations =  2.0

     total cpu time spent up to now is       12.4 secs

     total energy              =    -274.48489569 Ry
     estimated scf accuracy    <       3.17137246 Ry

     iteration #  2     ecut=    90.00 Ry     beta= 0.70
     Davidson diagonalization with overlap
     ethr =  4.96E-03,  avg # of iterations =  3.0

     total cpu time spent up to now is       22.2 secs

     total energy              =    -275.52749669 Ry
     estimated scf accuracy    <       1.22902615 Ry

     iteration #  3     ecut=    90.00 Ry     beta= 0.70
     Davidson diagonalization with overlap
     ethr =  1.92E-03,  avg # of iterations =  2.0

     total cpu time spent up to now is       29.5 secs

     total energy              =    -275.66199141 Ry
     estimated scf accuracy    <       0.05207197 Ry

     iteration #  4     ecut=    90.00 Ry     beta= 0.70
     Davidson diagonalization with overlap
     ethr =  8.14E-05,  avg # of iterations =  4.0

     total cpu time spent up to now is       40.2 secs

     total energy              =    -275.69609834 Ry
     estimated scf accuracy    <       0.05671470 Ry

     iteration #  5     ecut=    90.00 Ry     beta= 0.70
     Davidson diagonalization with overlap
     ethr =  8.14E-05,  avg # of iterations =  2.0

     total cpu time spent up to now is       47.4 secs

     total energy              =    -275.69993433 Ry
     estimated scf accuracy    <       0.00713101 Ry

     iteration #  6     ecut=    90.00 Ry     beta= 0.70
     Davidson diagonalization with overlap
     ethr =  1.11E-05,  avg # of iterations =  2.0

     total cpu time spent up to now is       55.1 secs

     total energy              =    -275.70074352 Ry
     estimated scf accuracy    <       0.00132780 Ry

     iteration #  7     ecut=    90.00 Ry     beta= 0.70
     Davidson diagonalization with overlap
     ethr =  2.07E-06,  avg # of iterations =  3.0

     total cpu time spent up to now is       63.5 secs

     total energy              =    -275.70103897 Ry
     estimated scf accuracy    <       0.00006150 Ry

     iteration #  8     ecut=    90.00 Ry     beta= 0.70
     Davidson diagonalization with overlap
     ethr =  9.61E-08,  avg # of iterations =  4.0

     total cpu time spent up to now is       73.1 secs

     total energy              =    -275.70106721 Ry
     estimated scf accuracy    <       0.00000191 Ry

     iteration #  9     ecut=    90.00 Ry     beta= 0.70
     Davidson diagonalization with overlap
     ethr =  2.99E-09,  avg # of iterations =  3.8

     total cpu time spent up to now is       83.8 secs

     total energy              =    -275.70106863 Ry
     estimated scf accuracy    <       0.00000125 Ry

     iteration # 10     ecut=    90.00 Ry     beta= 0.70
     Davidson diagonalization with overlap
     ethr =  1.95E-09,  avg # of iterations =  1.4

     total cpu time spent up to now is       90.1 secs

     total energy              =    -275.70106844 Ry
     estimated scf accuracy    <       0.00000066 Ry

     iteration # 11     ecut=    90.00 Ry     beta= 0.70
     Davidson diagonalization with overlap
     ethr =  1.04E-09,  avg # of iterations =  2.0

     total cpu time spent up to now is       97.3 secs

     End of self-consistent calculation

     Number of k-points >= 100: set verbosity='high' to print the bands.

     highest occupied level (ev):    -2.5351

!    total energy              =    -275.70106846 Ry
     estimated scf accuracy    <       0.00000009 Ry

     The total energy is the sum of the following terms:
     one-electron contribution =    -225.73096725 Ry
     hartree contribution      =     135.19310687 Ry
     xc contribution           =     -69.23225718 Ry
     ewald contribution        =    -115.93095089 Ry

     convergence has been achieved in  11 iterations

     Forces acting on atoms (cartesian axes, Ry/au):

     atom    1 type  2   force =     0.00000000    0.02149758   -0.17764704
     atom    2 type  2   force =     0.00000000   -0.02149734   -0.17764686
     atom    3 type  2   force =     0.00000000    0.02149757   -0.17764632
     atom    4 type  2   force =     0.00000000   -0.02149758   -0.17764597
     atom    5 type  2   force =     0.00000000    0.25258616   -0.19088868
     atom    6 type  2   force =     0.00000000   -0.25258584   -0.19088859
     atom    7 type  2   force =     0.00000000    0.25258648   -0.19088901
     atom    8 type  2   force =     0.00000000   -0.25258612   -0.19088872
     atom    9 type  1   force =     0.00000000    0.00069498    0.18423927
     atom   10 type  1   force =     0.00000000   -0.00069497    0.18423810
     atom   11 type  1   force =     0.00000000    0.00069501    0.18423951
     atom   12 type  1   force =     0.00000000   -0.00069501    0.18423832
     atom   13 type  1   force =     0.00000000   -0.02588830   -0.01305769
     atom   14 type  1   force =     0.00000000    0.02588790   -0.01305760
     atom   15 type  1   force =     0.00000000   -0.02588827   -0.01305763
     atom   16 type  1   force =     0.00000000    0.02588822   -0.01305767
     atom   17 type  1   force =     0.22308023   -0.12560777    0.09867710
     atom   18 type  1   force =    -0.22308000    0.12560763    0.09867700
     atom   19 type  1   force =     0.22308000    0.12560763    0.09867700
     atom   20 type  1   force =    -0.22308023   -0.12560777    0.09867710
     atom   21 type  1   force =     0.22308033   -0.12560779    0.09867711
     atom   22 type  1   force =    -0.22308011    0.12560768    0.09867706
     atom   23 type  1   force =     0.22308011    0.12560768    0.09867706
     atom   24 type  1   force =    -0.22308033   -0.12560779    0.09867711

     Total force =     1.127124     Total SCF correction =     0.000401


     Computing stress (Cartesian axis) and pressure

          total   stress  (Ry/bohr**3)                   (kbar)     P=      228.92
   0.00214665   0.00000000   0.00000000          315.78        0.00        0.00
   0.00000000   0.00088389  -0.00000000            0.00      130.02       -0.00
   0.00000000  -0.00000000   0.00163801            0.00       -0.00      240.96


     BFGS Geometry Optimization
     Energy error            =      0.0E+00 Ry
     Gradient error          =      2.5E-01 Ry/Bohr

     number of scf cycles    =   1
     number of bfgs steps    =   0

     energy             new  =    -275.7010684551 Ry

     new trust radius        =       0.3166047149 bohr
     new conv_thr            =       0.0000001000 Ry


ATOMIC_POSITIONS (crystal)
O                0.0000000000        0.6663619149        0.0493650615
O                0.0000000000        0.3336381026        0.5493650530
O                0.5000000000        0.1663619137        0.0493651178
O                0.5000000000        0.8336380851        0.5493651215
O                0.5000000000        0.8438518933        0.9221412898
O                0.5000000000        0.1561481306        0.4221412667
O                0.0000000000        0.3438519166        0.9221412642
O                0.0000000000        0.6561481103        0.4221412568
H                0.0000000000        0.6636505228        0.2105446252
H                0.0000000000        0.3363494785        0.7105445651
H                0.5000000000        0.1636505249        0.2105446442
H                0.5000000000        0.8363494756        0.7105445816
H                0.0000000000        0.5344190654        0.0172904337
H                0.0000000000        0.4655809053        0.5172904370
H                0.5000000000        0.0344190675        0.0172904384
H                0.5000000000        0.9655809286        0.5172904318
H                0.7046743401        0.7656738536        0.9893293121
H                0.2953256890        0.2343261361        0.4893293046
H                0.7046743110        0.2343261361        0.4893293046
H                0.2953256599        0.7656738536        0.9893293121
H                0.2046743521        0.2656738526        0.9893293130
H                0.7953256747        0.7343261400        0.4893293090
H                0.2046743253        0.7343261400        0.4893293090
H                0.7953256479        0.2656738526        0.9893293130



     Writing config-only to output data dir ./iceIh/iceIh.save/ :
     XML data file
     NEW-OLD atomic charge density approx. for the potential

     total cpu time spent up to now is      105.4 secs

     per-process dynamical memory:    54.5 Mb

     Self-consistent Calculation

     iteration #  1     ecut=    90.00 Ry     beta= 0.70
     Davidson diagonalization with overlap
     ethr =  1.00E-06,  avg # of iterations = 12.0

     total cpu time spent up to now is      134.4 secs

     total energy              =    -275.81124695 Ry
     estimated scf accuracy    <       0.27214534 Ry

     iteration #  2     ecut=    90.00 Ry     beta= 0.70
     Davidson diagonalization with overlap
     ethr =  4.25E-04,  avg # of iterations =  2.5

     total cpu time spent up to now is      143.4 secs

     total energy              =    -275.87803501 Ry
     estimated scf accuracy    <       0.04941704 Ry

     iteration #  3     ecut=    90.00 Ry     beta= 0.70
     Davidson diagonalization with overlap
     ethr =  7.72E-05,  avg # of iterations =  2.4

     total cpu time spent up to now is      151.8 secs

     total energy              =    -275.88615454 Ry
     estimated scf accuracy    <       0.00204249 Ry

     iteration #  4     ecut=    90.00 Ry     beta= 0.70
     Davidson diagonalization with overlap
     ethr =  3.19E-06,  avg # of iterations =  2.5

     total cpu time spent up to now is      160.9 secs

     total energy              =    -275.88670091 Ry
     estimated scf accuracy    <       0.00037458 Ry

     iteration #  5     ecut=    90.00 Ry     beta= 0.70
     Davidson diagonalization with overlap
     ethr =  5.85E-07,  avg # of iterations =  2.1

     total cpu time spent up to now is      168.8 secs

     total energy              =    -275.88675778 Ry
     estimated scf accuracy    <       0.00005956 Ry

     iteration #  6     ecut=    90.00 Ry     beta= 0.70
     Davidson diagonalization with overlap
     ethr =  9.31E-08,  avg # of iterations =  3.0

     total cpu time spent up to now is      177.9 secs

     total energy              =    -275.88677077 Ry
     estimated scf accuracy    <       0.00001334 Ry

     iteration #  7     ecut=    90.00 Ry     beta= 0.70
     Davidson diagonalization with overlap
     ethr =  2.08E-08,  avg # of iterations =  3.0

     total cpu time spent up to now is      187.1 secs

     total energy              =    -275.88677476 Ry
     estimated scf accuracy    <       0.00000143 Ry

     iteration #  8     ecut=    90.00 Ry     beta= 0.70
     Davidson diagonalization with overlap
     ethr =  2.23E-09,  avg # of iterations =  2.0

     total cpu time spent up to now is      193.9 secs

     total energy              =    -275.88677464 Ry
     estimated scf accuracy    <       0.00000040 Ry

     iteration #  9     ecut=    90.00 Ry     beta= 0.70
     Davidson diagonalization with overlap
     ethr =  6.24E-10,  avg # of iterations =  2.5

     total cpu time spent up to now is      202.8 secs

     End of self-consistent calculation

     Number of k-points >= 100: set verbosity='high' to print the bands.

     highest occupied level (ev):    -2.0217

!    total energy              =    -275.88677477 Ry
     estimated scf accuracy    <       0.00000002 Ry

     The total energy is the sum of the following terms:
     one-electron contribution =    -208.44128131 Ry
     hartree contribution      =     127.47076069 Ry
     xc contribution           =     -67.50380427 Ry
     ewald contribution        =    -127.41244987 Ry

     convergence has been achieved in   9 iterations

     Forces acting on atoms (cartesian axes, Ry/au):

     atom    1 type  2   force =     0.00000000    0.07059848    0.08153222
     atom    2 type  2   force =     0.00000000   -0.07059897    0.08153218
     atom    3 type  2   force =     0.00000000    0.07059843    0.08153192
     atom    4 type  2   force =     0.00000000   -0.07059830    0.08153171
     atom    5 type  2   force =     0.00000000   -0.09997665    0.07796820
     atom    6 type  2   force =     0.00000000    0.09997651    0.07796823
     atom    7 type  2   force =     0.00000000   -0.09997689    0.07796822
     atom    8 type  2   force =     0.00000000    0.09997676    0.07796820
     atom    9 type  1   force =     0.00000000    0.01131349   -0.02817859
     atom   10 type  1   force =     0.00000000   -0.01131346   -0.02817839
     atom   11 type  1   force =     0.00000000    0.01131347   -0.02817849
     atom   12 type  1   force =     0.00000000   -0.01131346   -0.02817824
     atom   13 type  1   force =     0.00000000   -0.04940323   -0.03795589
     atom   14 type  1   force =     0.00000000    0.04940370   -0.03795598
     atom   15 type  1   force =     0.00000000   -0.04940319   -0.03795584
     atom   16 type  1   force =     0.00000000    0.04940312   -0.03795582
     atom   17 type  1   force =    -0.04101800    0.03499289   -0.04668293
     atom   18 type  1   force =     0.04101796   -0.03499283   -0.04668295
     atom   19 type  1   force =    -0.04101796   -0.03499283   -0.04668295
     atom   20 type  1   force =     0.04101800    0.03499289   -0.04668293
     atom   21 type  1   force =    -0.04101804    0.03499295   -0.04668297
     atom   22 type  1   force =     0.04101801   -0.03499290   -0.04668297
     atom   23 type  1   force =    -0.04101801   -0.03499290   -0.04668297
     atom   24 type  1   force =     0.04101804    0.03499295   -0.04668297

     Total force =     0.413192     Total SCF correction =     0.000309


     Computing stress (Cartesian axis) and pressure

          total   stress  (Ry/bohr**3)                   (kbar)     P=      -28.94
  -0.00050922   0.00000000   0.00000000          -74.91        0.00        0.00
   0.00000000   0.00027242  -0.00000000            0.00       40.07       -0.00
   0.00000000  -0.00000000  -0.00035348            0.00       -0.00      -52.00

     Energy error            =      1.9E-01 Ry
     Gradient error          =      1.0E-01 Ry/Bohr

     number of scf cycles    =   2
     number of bfgs steps    =   1

     energy             old  =    -275.7010684551 Ry
     energy             new  =    -275.8867747652 Ry

     CASE: energy            _new < energy            _old

     new trust radius        =       0.0888265052 bohr
     new conv_thr            =       0.0000001000 Ry


ATOMIC_POSITIONS (crystal)
O                0.0000000000        0.6703771209        0.0538403114
O                0.0000000000        0.3296228695        0.5538403014
O                0.5000000000        0.1703771169        0.0538403518
O                0.5000000000        0.8296228892        0.5538403435
O                0.5000000000        0.8387690568        0.9263732691
O                0.5000000000        0.1612309597        0.4263732483
O                0.0000000000        0.3387690672        0.9263732442
O                0.0000000000        0.6612309533        0.4263732360
H                0.0000000000        0.6642881034        0.2092765254
H                0.0000000000        0.3357118996        0.7092764750
H                0.5000000000        0.1642881043        0.2092765513
H                0.5000000000        0.8357118969        0.7092765007
H                0.0000000000        0.5315862007        0.0149898816
H                0.0000000000        0.4684137951        0.5149898794
H                0.5000000000        0.0315862051        0.0149898893
H                0.5000000000        0.9684137867        0.5149898839
H                0.7015032086        0.7673736164        0.9867600256
H                0.2984968174        0.2326263762        0.4867600167
H                0.7015031826        0.2326263762        0.4867600167
H                0.2984967914        0.7673736164        0.9867600256
H                0.2015032172        0.2673736186        0.9867600243
H                0.7984968074        0.7326263763        0.4867600203
H                0.2015031926        0.7326263763        0.4867600203
H                0.7984967828        0.2673736186        0.9867600243



     Writing config-only to output data dir ./iceIh/iceIh.save/ :
     XML data file
     NEW-OLD atomic charge density approx. for the potential

     total cpu time spent up to now is      210.8 secs

     per-process dynamical memory:    55.5 Mb

     Self-consistent Calculation

     iteration #  1     ecut=    90.00 Ry     beta= 0.70
     Davidson diagonalization with overlap
     ethr =  1.00E-06,  avg # of iterations =  9.5

     total cpu time spent up to now is      233.1 secs

     total energy              =    -275.96581484 Ry
     estimated scf accuracy    <       0.01473485 Ry

     iteration #  2     ecut=    90.00 Ry     beta= 0.70
     Davidson diagonalization with overlap
     ethr =  2.30E-05,  avg # of iterations =  2.0

     total cpu time spent up to now is      241.3 secs

     total energy              =    -275.96886340 Ry
     estimated scf accuracy    <       0.00183489 Ry

     iteration #  3     ecut=    90.00 Ry     beta= 0.70
     Davidson diagonalization with overlap
     ethr =  2.87E-06,  avg # of iterations =  2.2

     total cpu time spent up to now is      249.8 secs

     total energy              =    -275.96928673 Ry
     estimated scf accuracy    <       0.00020612 Ry

     iteration #  4     ecut=    90.00 Ry     beta= 0.70
     Davidson diagonalization with overlap
     ethr =  3.22E-07,  avg # of iterations =  2.2

     total cpu time spent up to now is      257.7 secs

     total energy              =    -275.96932315 Ry
     estimated scf accuracy    <       0.00001237 Ry

     iteration #  5     ecut=    90.00 Ry     beta= 0.70
     Davidson diagonalization with overlap
     ethr =  1.93E-08,  avg # of iterations =  2.8

     total cpu time spent up to now is      266.7 secs

     total energy              =    -275.96932664 Ry
     estimated scf accuracy    <       0.00000180 Ry

     iteration #  6     ecut=    90.00 Ry     beta= 0.70
     Davidson diagonalization with overlap
     ethr =  2.81E-09,  avg # of iterations =  2.1

     total cpu time spent up to now is      274.4 secs

     total energy              =    -275.96932684 Ry
     estimated scf accuracy    <       0.00000014 Ry

     iteration #  7     ecut=    90.00 Ry     beta= 0.70
     Davidson diagonalization with overlap
     ethr =  2.20E-10,  avg # of iterations =  3.8

     total cpu time spent up to now is      284.9 secs

     total energy              =    -275.96932687 Ry
     estimated scf accuracy    <       0.00000010 Ry

     iteration #  8     ecut=    90.00 Ry     beta= 0.70
     Davidson diagonalization with overlap
     ethr =  1.57E-10,  avg # of iterations =  3.2

     total cpu time spent up to now is      293.9 secs

     End of self-consistent calculation

     Number of k-points >= 100: set verbosity='high' to print the bands.

     highest occupied level (ev):    -2.1331

!    total energy              =    -275.96932690 Ry
     estimated scf accuracy    <          8.0E-09 Ry

     The total energy is the sum of the following terms:
     one-electron contribution =    -209.71506505 Ry
     hartree contribution      =     128.04840484 Ry
     xc contribution           =     -67.63641364 Ry
     ewald contribution        =    -126.66625306 Ry

     convergence has been achieved in   8 iterations

     Forces acting on atoms (cartesian axes, Ry/au):

     atom    1 type  2   force =     0.00000000   -0.02154936    0.03700792
     atom    2 type  2   force =     0.00000000    0.02154948    0.03700772
     atom    3 type  2   force =     0.00000000   -0.02154932    0.03700771
     atom    4 type  2   force =     0.00000000    0.02154927    0.03700755
     atom    5 type  2   force =     0.00000000   -0.04531132    0.05094239
     atom    6 type  2   force =     0.00000000    0.04531120    0.05094238
     atom    7 type  2   force =     0.00000000   -0.04531145    0.05094248
     atom    8 type  2   force =     0.00000000    0.04531130    0.05094246
     atom    9 type  1   force =     0.00000000    0.01248556   -0.02316400
     atom   10 type  1   force =     0.00000000   -0.01248557   -0.02316376
     atom   11 type  1   force =     0.00000000    0.01248553   -0.02316390
     atom   12 type  1   force =     0.00000000   -0.01248551   -0.02316367
     atom   13 type  1   force =     0.00000000    0.01951113   -0.01475662
     atom   14 type  1   force =     0.00000000   -0.01951120   -0.01475662
     atom   15 type  1   force =     0.00000000    0.01951112   -0.01475657
     atom   16 type  1   force =     0.00000000   -0.01951107   -0.01475659
     atom   17 type  1   force =    -0.02715272    0.01901870   -0.02501485
     atom   18 type  1   force =     0.02715265   -0.01901865   -0.02501484
     atom   19 type  1   force =    -0.02715265   -0.01901865   -0.02501484
     atom   20 type  1   force =     0.02715272    0.01901870   -0.02501485
     atom   21 type  1   force =    -0.02715278    0.01901874   -0.02501488
     atom   22 type  1   force =     0.02715271   -0.01901868   -0.02501487
     atom   23 type  1   force =    -0.02715271   -0.01901868   -0.02501487
     atom   24 type  1   force =     0.02715278    0.01901874   -0.02501488

     Total force =     0.211873     Total SCF correction =     0.000128


     Computing stress (Cartesian axis) and pressure

          total   stress  (Ry/bohr**3)                   (kbar)     P=      -20.20
  -0.00021644   0.00000000   0.00000000          -31.84        0.00        0.00
   0.00000000  -0.00009434   0.00000000            0.00      -13.88        0.00
   0.00000000   0.00000000  -0.00010120            0.00        0.00      -14.89

     Energy error            =      8.3E-02 Ry
     Gradient error          =      5.1E-02 Ry/Bohr

     number of scf cycles    =   3
     number of bfgs steps    =   2

     energy             old  =    -275.8867747652 Ry
     energy             new  =    -275.9693268968 Ry

     CASE: energy            _new < energy            _old

     new trust radius        =       0.1207014188 bohr
     new conv_thr            =       0.0000001000 Ry


ATOMIC_POSITIONS (crystal)
O                0.0000000000        0.6685669998        0.0590337791
O                0.0000000000        0.3314329997        0.5590337455
O                0.5000000000        0.1685670005        0.0590337920
O                0.5000000000        0.8314330007        0.5590337631
O                0.5000000000        0.8328073996        0.9332173761
O                0.5000000000        0.1671926024        0.4332173551
O                0.0000000000        0.3328073931        0.9332173627
O                0.0000000000        0.6671926098        0.4332173515
H                0.0000000000        0.6658145136        0.2062792592
H                0.0000000000        0.3341854883        0.7062792390
H                0.5000000000        0.1658145115        0.2062792977
H                0.5000000000        0.8341854920        0.7062792766
H                0.0000000000        0.5333535461        0.0128280354
H                0.0000000000        0.4666464448        0.5128280319
H                0.5000000000        0.0333535502        0.0128280496
H                0.5000000000        0.9666464462        0.5128280424
H                0.6956646967        0.7698044506        0.9833207942
H                0.3043353138        0.2301955481        0.4833207860
H                0.6956646862        0.2301955481        0.4833207860
H                0.3043353033        0.7698044506        0.9833207942
H                0.1956646936        0.2698044583        0.9833207880
H                0.8043353161        0.7301955439        0.4833207862
H                0.1956646839        0.7301955439        0.4833207862
H                0.8043353064        0.2698044583        0.9833207880



     Writing config-only to output data dir ./iceIh/iceIh.save/ :
     XML data file
     NEW-OLD atomic charge density approx. for the potential

     total cpu time spent up to now is      301.8 secs

     per-process dynamical memory:    55.5 Mb

     Self-consistent Calculation

     iteration #  1     ecut=    90.00 Ry     beta= 0.70
     Davidson diagonalization with overlap
     ethr =  1.00E-06,  avg # of iterations = 10.0

     total cpu time spent up to now is      325.7 secs

     total energy              =    -275.98873201 Ry
     estimated scf accuracy    <       0.02715576 Ry

     iteration #  2     ecut=    90.00 Ry     beta= 0.70
     Davidson diagonalization with overlap
     ethr =  4.24E-05,  avg # of iterations =  2.8

     total cpu time spent up to now is      334.7 secs

     total energy              =    -275.99566727 Ry
     estimated scf accuracy    <       0.00504687 Ry

     iteration #  3     ecut=    90.00 Ry     beta= 0.70
     Davidson diagonalization with overlap
     ethr =  7.89E-06,  avg # of iterations =  2.0

     total cpu time spent up to now is      342.1 secs

     total energy              =    -275.99634969 Ry
     estimated scf accuracy    <       0.00019292 Ry

     iteration #  4     ecut=    90.00 Ry     beta= 0.70
     Davidson diagonalization with overlap
     ethr =  3.01E-07,  avg # of iterations =  3.0

     total cpu time spent up to now is      352.0 secs

     total energy              =    -275.99642808 Ry
     estimated scf accuracy    <       0.00007007 Ry

     iteration #  5     ecut=    90.00 Ry     beta= 0.70
     Davidson diagonalization with overlap
     ethr =  1.09E-07,  avg # of iterations =  2.6

     total cpu time spent up to now is      360.4 secs

     total energy              =    -275.99643937 Ry
     estimated scf accuracy    <       0.00001059 Ry

     iteration #  6     ecut=    90.00 Ry     beta= 0.70
     Davidson diagonalization with overlap
     ethr =  1.66E-08,  avg # of iterations =  3.0

     total cpu time spent up to now is      369.9 secs

     total energy              =    -275.99644114 Ry
     estimated scf accuracy    <       0.00000474 Ry

     iteration #  7     ecut=    90.00 Ry     beta= 0.70
     Davidson diagonalization with overlap
     ethr =  7.41E-09,  avg # of iterations =  2.0

     total cpu time spent up to now is      378.3 secs

     total energy              =    -275.99644256 Ry
     estimated scf accuracy    <       0.00000018 Ry

     iteration #  8     ecut=    90.00 Ry     beta= 0.70
     Davidson diagonalization with overlap
     ethr =  2.76E-10,  avg # of iterations =  2.8

     total cpu time spent up to now is      386.4 secs

     total energy              =    -275.99644251 Ry
     estimated scf accuracy    <       0.00000014 Ry

     iteration #  9     ecut=    90.00 Ry     beta= 0.70
     Davidson diagonalization with overlap
     ethr =  2.21E-10,  avg # of iterations =  2.0

     total cpu time spent up to now is      394.7 secs

     End of self-consistent calculation

     Number of k-points >= 100: set verbosity='high' to print the bands.

     highest occupied level (ev):    -2.2982

!    total energy              =    -275.99644255 Ry
     estimated scf accuracy    <          5.3E-10 Ry

     The total energy is the sum of the following terms:
     one-electron contribution =    -214.52637355 Ry
     hartree contribution      =     130.21077263 Ry
     xc contribution           =     -68.11652596 Ry
     ewald contribution        =    -123.56431567 Ry

     convergence has been achieved in   9 iterations

     Forces acting on atoms (cartesian axes, Ry/au):

     atom    1 type  2   force =     0.00000000   -0.01867403   -0.02035627
     atom    2 type  2   force =     0.00000000    0.01867393   -0.02035600
     atom    3 type  2   force =     0.00000000   -0.01867399   -0.02035606
     atom    4 type  2   force =     0.00000000    0.01867394   -0.02035585
     atom    5 type  2   force =     0.00000000    0.03371477   -0.01487765
     atom    6 type  2   force =     0.00000000   -0.03371477   -0.01487758
     atom    7 type  2   force =     0.00000000    0.03371485   -0.01487769
     atom    8 type  2   force =     0.00000000   -0.03371485   -0.01487762
     atom    9 type  1   force =     0.00000000    0.00155347    0.01258167
     atom   10 type  1   force =     0.00000000   -0.00155349    0.01258156
     atom   11 type  1   force =     0.00000000    0.00155348    0.01258146
     atom   12 type  1   force =     0.00000000   -0.00155349    0.01258139
     atom   13 type  1   force =     0.00000000    0.01634653    0.00216614
     atom   14 type  1   force =     0.00000000   -0.01634642    0.00216606
     atom   15 type  1   force =     0.00000000    0.01634652    0.00216614
     atom   16 type  1   force =     0.00000000   -0.01634646    0.00216608
     atom   17 type  1   force =     0.01269323   -0.01671991    0.01024302
     atom   18 type  1   force =    -0.01269325    0.01671991    0.01024300
     atom   19 type  1   force =     0.01269325    0.01671991    0.01024300
     atom   20 type  1   force =    -0.01269323   -0.01671991    0.01024302
     atom   21 type  1   force =     0.01269327   -0.01671995    0.01024305
     atom   22 type  1   force =    -0.01269329    0.01671994    0.01024303
     atom   23 type  1   force =     0.01269329    0.01671994    0.01024303
     atom   24 type  1   force =    -0.01269327   -0.01671995    0.01024305

     Total force =     0.120746     Total SCF correction =     0.000054


     Computing stress (Cartesian axis) and pressure

          total   stress  (Ry/bohr**3)                   (kbar)     P=       41.03
   0.00034244   0.00000000   0.00000000           50.38        0.00        0.00
   0.00000000   0.00014743  -0.00000000            0.00       21.69       -0.00
   0.00000000  -0.00000000   0.00034685            0.00       -0.00       51.02

     Energy error            =      2.7E-02 Ry
     Gradient error          =      3.4E-02 Ry/Bohr

     number of scf cycles    =   4
     number of bfgs steps    =   3

     energy             old  =    -275.9693268968 Ry
     energy             new  =    -275.9964425467 Ry

     CASE: energy            _new < energy            _old

     new trust radius        =       0.0364501135 bohr
     new conv_thr            =       0.0000001000 Ry


ATOMIC_POSITIONS (crystal)
O                0.0000000000        0.6681538010        0.0574779185
O                0.0000000000        0.3318461903        0.5574779030
O                0.5000000000        0.1681538025        0.0574779457
O                0.5000000000        0.8318461975        0.5574779303
O                0.5000000000        0.8350304006        0.9316856790
O                0.5000000000        0.1649696029        0.4316856621
O                0.0000000000        0.3350304001        0.9316856619
O                0.0000000000        0.6649696055        0.4316856548
H                0.0000000000        0.6656909401        0.2072673359
H                0.0000000000        0.3343090611        0.7072673058
H                0.5000000000        0.1656909384        0.2072673609
H                0.5000000000        0.8343090641        0.7072673327
H                0.0000000000        0.5337329455        0.0131482791
H                0.0000000000        0.4662670535        0.5131482715
H                0.5000000000        0.0337329496        0.0131482926
H                0.5000000000        0.9662670491        0.5131482829
H                0.6973345766        0.7687333193        0.9842104113
H                0.3026654339        0.2312666788        0.4842104020
H                0.6973345661        0.2312666788        0.4842104020
H                0.3026654234        0.7687333193        0.9842104113
H                0.1973345788        0.2687333242        0.9842104073
H                0.8026654318        0.7312666768        0.4842104041
H                0.1973345682        0.7312666768        0.4842104041
H                0.8026654212        0.2687333242        0.9842104073



     Writing config-only to output data dir ./iceIh/iceIh.save/ :
     XML data file
     NEW-OLD atomic charge density approx. for the potential

     total cpu time spent up to now is      402.7 secs

     per-process dynamical memory:    55.5 Mb

     Self-consistent Calculation

     iteration #  1     ecut=    90.00 Ry     beta= 0.70
     Davidson diagonalization with overlap
     ethr =  1.00E-06,  avg # of iterations =  5.8

     total cpu time spent up to now is      418.5 secs

     total energy              =    -276.00131647 Ry
     estimated scf accuracy    <       0.00260135 Ry

     iteration #  2     ecut=    90.00 Ry     beta= 0.70
     Davidson diagonalization with overlap
     ethr =  4.06E-06,  avg # of iterations =  3.0

     total cpu time spent up to now is      427.7 secs

     total energy              =    -276.00192359 Ry
     estimated scf accuracy    <       0.00056171 Ry

     iteration #  3     ecut=    90.00 Ry     beta= 0.70
     Davidson diagonalization with overlap
     ethr =  8.78E-07,  avg # of iterations =  2.7

     total cpu time spent up to now is      436.2 secs

     total energy              =    -276.00203771 Ry
     estimated scf accuracy    <       0.00002012 Ry

     iteration #  4     ecut=    90.00 Ry     beta= 0.70
     Davidson diagonalization with overlap
     ethr =  3.14E-08,  avg # of iterations =  2.5

     total cpu time spent up to now is      445.1 secs

     total energy              =    -276.00204252 Ry
     estimated scf accuracy    <       0.00000409 Ry

     iteration #  5     ecut=    90.00 Ry     beta= 0.70
     Davidson diagonalization with overlap
     ethr =  6.38E-09,  avg # of iterations =  2.0

     total cpu time spent up to now is      453.2 secs

     total energy              =    -276.00204318 Ry
     estimated scf accuracy    <       0.00000032 Ry

     iteration #  6     ecut=    90.00 Ry     beta= 0.70
     Davidson diagonalization with overlap
     ethr =  5.01E-10,  avg # of iterations =  3.8

     total cpu time spent up to now is      463.1 secs

     total energy              =    -276.00204325 Ry
     estimated scf accuracy    <       0.00000012 Ry

     iteration #  7     ecut=    90.00 Ry     beta= 0.70
     Davidson diagonalization with overlap
     ethr =  1.93E-10,  avg # of iterations =  3.0

     total cpu time spent up to now is      472.6 secs

     End of self-consistent calculation

     Number of k-points >= 100: set verbosity='high' to print the bands.

     highest occupied level (ev):    -2.2777

!    total energy              =    -276.00204328 Ry
     estimated scf accuracy    <       0.00000002 Ry

     The total energy is the sum of the following terms:
     one-electron contribution =    -213.25027168 Ry
     hartree contribution      =     129.63769453 Ry
     xc contribution           =     -67.98848633 Ry
     ewald contribution        =    -124.40097981 Ry

     convergence has been achieved in   7 iterations

     Forces acting on atoms (cartesian axes, Ry/au):

     atom    1 type  2   force =     0.00000000   -0.00375697    0.00381361
     atom    2 type  2   force =     0.00000000    0.00375706    0.00381353
     atom    3 type  2   force =     0.00000000   -0.00375697    0.00381352
     atom    4 type  2   force =     0.00000000    0.00375697    0.00381349
     atom    5 type  2   force =     0.00000000    0.00065974    0.00610118
     atom    6 type  2   force =     0.00000000   -0.00065977    0.00610120
     atom    7 type  2   force =     0.00000000    0.00065971    0.00610120
     atom    8 type  2   force =     0.00000000   -0.00065976    0.00610121
     atom    9 type  1   force =     0.00000000    0.00259968   -0.00236496
     atom   10 type  1   force =     0.00000000   -0.00259970   -0.00236484
     atom   11 type  1   force =     0.00000000    0.00259967   -0.00236494
     atom   12 type  1   force =     0.00000000   -0.00259968   -0.00236484
     atom   13 type  1   force =     0.00000000    0.00502221   -0.00401529
     atom   14 type  1   force =     0.00000000   -0.00502226   -0.00401530
     atom   15 type  1   force =     0.00000000    0.00502223   -0.00401527
     atom   16 type  1   force =     0.00000000   -0.00502221   -0.00401529
     atom   17 type  1   force =    -0.00490377   -0.00239272   -0.00176728
     atom   18 type  1   force =     0.00490373    0.00239273   -0.00176727
     atom   19 type  1   force =    -0.00490373    0.00239273   -0.00176727
     atom   20 type  1   force =     0.00490377   -0.00239272   -0.00176728
     atom   21 type  1   force =    -0.00490379   -0.00239271   -0.00176728
     atom   22 type  1   force =     0.00490375    0.00239273   -0.00176728
     atom   23 type  1   force =    -0.00490375    0.00239273   -0.00176728
     atom   24 type  1   force =     0.00490379   -0.00239271   -0.00176728

     Total force =     0.027262     Total SCF correction =     0.000098


     Computing stress (Cartesian axis) and pressure

          total   stress  (Ry/bohr**3)                   (kbar)     P=       23.27
   0.00012719   0.00000000   0.00000000           18.71        0.00        0.00
   0.00000000   0.00015664   0.00000000            0.00       23.04        0.00
   0.00000000   0.00000000   0.00019067            0.00        0.00       28.05

     Energy error            =      5.6E-03 Ry
     Gradient error          =      6.1E-03 Ry/Bohr

     number of scf cycles    =   5
     number of bfgs steps    =   4

     energy             old  =    -275.9964425467 Ry
     energy             new  =    -276.0020432845 Ry

     CASE: energy            _new < energy            _old

     new trust radius        =       0.0067361459 bohr
     new conv_thr            =       0.0000000560 Ry


ATOMIC_POSITIONS (crystal)
O                0.0000000000        0.6678923517        0.0577788862
O                0.0000000000        0.3321076437        0.5577788666
O                0.5000000000        0.1678923535        0.0577789081
O                0.5000000000        0.8321076463        0.5577788913
O                0.5000000000        0.8350964056        0.9321875102
O                0.5000000000        0.1649035952        0.4321874958
O                0.0000000000        0.3350964033        0.9321874944
O                0.0000000000        0.6649035988        0.4321874887
H                0.0000000000        0.6658989062        0.2071176359
H                0.0000000000        0.3341010938        0.7071176140
H                0.5000000000        0.1658989042        0.2071176614
H                0.5000000000        0.8341010980        0.7071176404
H                0.0000000000        0.5340996822        0.0128034016
H                0.0000000000        0.4659003148        0.5128033930
H                0.5000000000        0.0340996874        0.0128034168
H                0.5000000000        0.9659003125        0.5128034057
H                0.6967539949        0.7685361391        0.9840562996
H                0.3032460105        0.2314638601        0.4840562904
H                0.6967539895        0.2314638601        0.4840562904
H                0.3032460051        0.7685361391        0.9840562996
H                0.1967539951        0.2685361441        0.9840562954
H                0.8032460101        0.7314638581        0.4840562925
H                0.1967539899        0.7314638581        0.4840562925
H                0.8032460049        0.2685361441        0.9840562954



     Writing config-only to output data dir ./iceIh/iceIh.save/ :
     XML data file
     NEW-OLD atomic charge density approx. for the potential

     total cpu time spent up to now is      480.5 secs

     per-process dynamical memory:    55.5 Mb

     Self-consistent Calculation

     iteration #  1     ecut=    90.00 Ry     beta= 0.70
     Davidson diagonalization with overlap
     ethr =  1.00E-06,  avg # of iterations =  3.0

     total cpu time spent up to now is      491.5 secs

     total energy              =    -276.00258615 Ry
     estimated scf accuracy    <       0.00007596 Ry

     iteration #  2     ecut=    90.00 Ry     beta= 0.70
     Davidson diagonalization with overlap
     ethr =  1.19E-07,  avg # of iterations =  2.0

     total cpu time spent up to now is      499.9 secs

     total energy              =    -276.00260762 Ry
     estimated scf accuracy    <       0.00001275 Ry

     iteration #  3     ecut=    90.00 Ry     beta= 0.70
     Davidson diagonalization with overlap
     ethr =  1.99E-08,  avg # of iterations =  2.0

     total cpu time spent up to now is      507.7 secs

     total energy              =    -276.00260953 Ry
     estimated scf accuracy    <       0.00000055 Ry

     iteration #  4     ecut=    90.00 Ry     beta= 0.70
     Davidson diagonalization with overlap
     ethr =  8.60E-10,  avg # of iterations =  3.0

     total cpu time spent up to now is      517.2 secs

     total energy              =    -276.00260970 Ry
     estimated scf accuracy    <       0.00000022 Ry

     iteration #  5     ecut=    90.00 Ry     beta= 0.70
     Davidson diagonalization with overlap
     ethr =  3.45E-10,  avg # of iterations =  2.0

     total cpu time spent up to now is      525.5 secs

     End of self-consistent calculation

     Number of k-points >= 100: set verbosity='high' to print the bands.

     highest occupied level (ev):    -2.2885

!    total energy              =    -276.00260973 Ry
     estimated scf accuracy    <       0.00000002 Ry

     The total energy is the sum of the following terms:
     one-electron contribution =    -213.52285714 Ry
     hartree contribution      =     129.76099038 Ry
     xc contribution           =     -68.01579418 Ry
     ewald contribution        =    -124.22494880 Ry

     convergence has been achieved in   5 iterations

     Forces acting on atoms (cartesian axes, Ry/au):

     atom    1 type  2   force =     0.00000000    0.00041420    0.00069369
     atom    2 type  2   force =     0.00000000   -0.00041420    0.00069372
     atom    3 type  2   force =     0.00000000    0.00041422    0.00069367
     atom    4 type  2   force =     0.00000000   -0.00041422    0.00069370
     atom    5 type  2   force =     0.00000000    0.00165974    0.00334460
     atom    6 type  2   force =     0.00000000   -0.00165975    0.00334464
     atom    7 type  2   force =     0.00000000    0.00165974    0.00334461
     atom    8 type  2   force =     0.00000000   -0.00165975    0.00334464
     atom    9 type  1   force =     0.00000000    0.00124000    0.00004957
     atom   10 type  1   force =     0.00000000   -0.00124001    0.00004959
     atom   11 type  1   force =     0.00000000    0.00124000    0.00004955
     atom   12 type  1   force =     0.00000000   -0.00124000    0.00004958
     atom   13 type  1   force =     0.00000000    0.00176483   -0.00311166
     atom   14 type  1   force =     0.00000000   -0.00176482   -0.00311167
     atom   15 type  1   force =     0.00000000    0.00176483   -0.00311165
     atom   16 type  1   force =     0.00000000   -0.00176482   -0.00311166
     atom   17 type  1   force =    -0.00279341   -0.00289415   -0.00048811
     atom   18 type  1   force =     0.00279339    0.00289415   -0.00048812
     atom   19 type  1   force =    -0.00279339    0.00289415   -0.00048812
     atom   20 type  1   force =     0.00279341   -0.00289415   -0.00048811
     atom   21 type  1   force =    -0.00279342   -0.00289416   -0.00048811
     atom   22 type  1   force =     0.00279340    0.00289416   -0.00048812
     atom   23 type  1   force =    -0.00279340    0.00289416   -0.00048812
     atom   24 type  1   force =     0.00279342   -0.00289416   -0.00048811

     Total force =     0.015718     Total SCF correction =     0.000176


     Computing stress (Cartesian axis) and pressure

          total   stress  (Ry/bohr**3)                   (kbar)     P=       27.08
   0.00015071   0.00000000   0.00000000           22.17        0.00        0.00
   0.00000000   0.00018794  -0.00000000            0.00       27.65       -0.00
   0.00000000  -0.00000000   0.00021366            0.00       -0.00       31.43

     Energy error            =      5.7E-04 Ry
     Gradient error          =      3.3E-03 Ry/Bohr

     number of scf cycles    =   6
     number of bfgs steps    =   5

     energy             old  =    -276.0020432845 Ry
     energy             new  =    -276.0026097332 Ry

     CASE: energy            _new < energy            _old

     new trust radius        =       0.0103363936 bohr
     new conv_thr            =       0.0000000057 Ry


ATOMIC_POSITIONS (crystal)
O                0.0000000000        0.6678201953        0.0579899011
O                0.0000000000        0.3321798016        0.5579898871
O                0.5000000000        0.1678202002        0.0579899196
O                0.5000000000        0.8321797996        0.5579899077
O                0.5000000000        0.8354096910        0.9329138124
O                0.5000000000        0.1645903073        0.4329138054
O                0.0000000000        0.3354096878        0.9329137977
O                0.0000000000        0.6645903118        0.4329137982
H                0.0000000000        0.6661795112        0.2070982134
H                0.0000000000        0.3338204867        0.7070981976
H                0.5000000000        0.1661795090        0.2070982349
H                0.5000000000        0.8338204923        0.7070982215
H                0.0000000000        0.5345326899        0.0121632066
H                0.0000000000        0.4654673089        0.5121631944
H                0.5000000000        0.0345326951        0.0121632237
H                0.5000000000        0.9654673070        0.5121632098
H                0.6958645648        0.7680057074        0.9839174471
H                0.3041354340        0.2319942927        0.4839174371
H                0.6958645660        0.2319942927        0.4839174371
H                0.3041354352        0.7680057074        0.9839174471
H                0.1958645637        0.2680057114        0.9839174435
H                0.8041354359        0.7319942912        0.4839174396
H                0.1958645641        0.7319942912        0.4839174396
H                0.8041354363        0.2680057114        0.9839174435



     Writing config-only to output data dir ./iceIh/iceIh.save/ :
     XML data file
     NEW-OLD atomic charge density approx. for the potential

     total cpu time spent up to now is      533.6 secs

     per-process dynamical memory:    55.5 Mb

     Self-consistent Calculation

     iteration #  1     ecut=    90.00 Ry     beta= 0.70
     Davidson diagonalization with overlap
     ethr =  1.00E-06,  avg # of iterations =  3.8

     total cpu time spent up to now is      545.1 secs

     total energy              =    -276.00300661 Ry
     estimated scf accuracy    <       0.00007941 Ry

     iteration #  2     ecut=    90.00 Ry     beta= 0.70
     Davidson diagonalization with overlap
     ethr =  1.24E-07,  avg # of iterations =  2.0

     total cpu time spent up to now is      553.2 secs

     total energy              =    -276.00302229 Ry
     estimated scf accuracy    <       0.00000680 Ry

     iteration #  3     ecut=    90.00 Ry     beta= 0.70
     Davidson diagonalization with overlap
     ethr =  1.06E-08,  avg # of iterations =  2.0

     total cpu time spent up to now is      561.7 secs

     total energy              =    -276.00302409 Ry
     estimated scf accuracy    <       0.00000059 Ry

     iteration #  4     ecut=    90.00 Ry     beta= 0.70
     Davidson diagonalization with overlap
     ethr =  9.22E-10,  avg # of iterations =  2.0

     total cpu time spent up to now is      568.8 secs

     total energy              =    -276.00302419 Ry
     estimated scf accuracy    <       0.00000004 Ry

     iteration #  5     ecut=    90.00 Ry     beta= 0.70
     Davidson diagonalization with overlap
     ethr =  6.78E-11,  avg # of iterations =  3.0

     total cpu time spent up to now is      578.0 secs

     total energy              =    -276.00302420 Ry
     estimated scf accuracy    <          6.0E-09 Ry

     iteration #  6     ecut=    90.00 Ry     beta= 0.70
     Davidson diagonalization with overlap
     ethr =  9.44E-12,  avg # of iterations =  3.1

     total cpu time spent up to now is      586.7 secs

     End of self-consistent calculation

     Number of k-points >= 100: set verbosity='high' to print the bands.

     highest occupied level (ev):    -2.2975

!    total energy              =    -276.00302420 Ry
     estimated scf accuracy    <          6.6E-10 Ry

     The total energy is the sum of the following terms:
     one-electron contribution =    -213.70805597 Ry
     hartree contribution      =     129.84302549 Ry
     xc contribution           =     -68.03374534 Ry
     ewald contribution        =    -124.10424838 Ry

     convergence has been achieved in   6 iterations

     Forces acting on atoms (cartesian axes, Ry/au):

     atom    1 type  2   force =     0.00000000    0.00324541   -0.00110747
     atom    2 type  2   force =     0.00000000   -0.00324540   -0.00110747
     atom    3 type  2   force =     0.00000000    0.00324541   -0.00110747
     atom    4 type  2   force =     0.00000000   -0.00324538   -0.00110747
     atom    5 type  2   force =     0.00000000    0.00105524    0.00048650
     atom    6 type  2   force =     0.00000000   -0.00105523    0.00048651
     atom    7 type  2   force =     0.00000000    0.00105524    0.00048650
     atom    8 type  2   force =     0.00000000   -0.00105524    0.00048651
     atom    9 type  1   force =     0.00000000   -0.00028267    0.00077733
     atom   10 type  1   force =     0.00000000    0.00028267    0.00077734
     atom   11 type  1   force =     0.00000000   -0.00028266    0.00077731
     atom   12 type  1   force =     0.00000000    0.00028266    0.00077732
     atom   13 type  1   force =     0.00000000   -0.00056587   -0.00135930
     atom   14 type  1   force =     0.00000000    0.00056587   -0.00135929
     atom   15 type  1   force =     0.00000000   -0.00056586   -0.00135930
     atom   16 type  1   force =     0.00000000    0.00056584   -0.00135929
     atom   17 type  1   force =    -0.00008451   -0.00235371    0.00060146
     atom   18 type  1   force =     0.00008450    0.00235371    0.00060147
     atom   19 type  1   force =    -0.00008450    0.00235371    0.00060147
     atom   20 type  1   force =     0.00008451   -0.00235371    0.00060146
     atom   21 type  1   force =    -0.00008450   -0.00235372    0.00060147
     atom   22 type  1   force =     0.00008450    0.00235371    0.00060147
     atom   23 type  1   force =    -0.00008450    0.00235371    0.00060147
     atom   24 type  1   force =     0.00008450   -0.00235372    0.00060147

     Total force =     0.010541     Total SCF correction =     0.000047


     Computing stress (Cartesian axis) and pressure

          total   stress  (Ry/bohr**3)                   (kbar)     P=       29.47
   0.00017440   0.00000000   0.00000000           25.66        0.00        0.00
   0.00000000   0.00020889   0.00000000            0.00       30.73        0.00
   0.00000000   0.00000000   0.00021775            0.00        0.00       32.03

     Energy error            =      4.1E-04 Ry
     Gradient error          =      3.2E-03 Ry/Bohr

     number of scf cycles    =   7
     number of bfgs steps    =   6

     energy             old  =    -276.0026097332 Ry
     energy             new  =    -276.0030241991 Ry

     CASE: energy            _new < energy            _old

     new trust radius        =       0.0061572228 bohr
     new conv_thr            =       0.0000000041 Ry


ATOMIC_POSITIONS (crystal)
O                0.0000000000        0.6680029523        0.0579882375
O                0.0000000000        0.3319970478        0.5579882226
O                0.5000000000        0.1680029573        0.0579882528
O                0.5000000000        0.8319970445        0.5579882419
O                0.5000000000        0.8356167362        0.9332409033
O                0.5000000000        0.1643832610        0.4332409001
O                0.0000000000        0.3356167323        0.9332408891
O                0.0000000000        0.6643832657        0.4332408922
H                0.0000000000        0.6662691765        0.2071287107
H                0.0000000000        0.3337308204        0.7071287005
H                0.5000000000        0.1662691748        0.2071287301
H                0.5000000000        0.8337308261        0.7071287216
H                0.0000000000        0.5347020493        0.0118047620
H                0.0000000000        0.4652979482        0.5118047494
H                0.5000000000        0.0347020558        0.0118047801
H                0.5000000000        0.9652979455        0.5118047663
H                0.6955120003        0.7676073394        0.9839187057
H                0.3044879955        0.2323926610        0.4839186959
H                0.6955120045        0.2323926610        0.4839186959
H                0.3044879997        0.7676073394        0.9839187057
H                0.1955119985        0.2676073427        0.9839187025
H                0.8044879978        0.7323926601        0.4839186988
H                0.1955120022        0.7323926601        0.4839186988
H                0.8044880015        0.2676073427        0.9839187025



     Writing config-only to output data dir ./iceIh/iceIh.save/ :
     XML data file
     NEW-OLD atomic charge density approx. for the potential

     total cpu time spent up to now is      595.0 secs

     per-process dynamical memory:    55.5 Mb

     Self-consistent Calculation

     iteration #  1     ecut=    90.00 Ry     beta= 0.70
     Davidson diagonalization with overlap
     ethr =  1.00E-06,  avg # of iterations =  3.0

     Threshold (ethr) on eigenvalues was too large:
     Diagonalizing with lowered threshold

     Davidson diagonalization with overlap
     ethr =  2.95E-08,  avg # of iterations =  2.0

     total cpu time spent up to now is      612.4 secs

     total energy              =    -276.00314156 Ry
     estimated scf accuracy    <       0.00002252 Ry

     iteration #  2     ecut=    90.00 Ry     beta= 0.70
     Davidson diagonalization with overlap
     ethr =  3.52E-08,  avg # of iterations =  2.0

     total cpu time spent up to now is      619.8 secs

     total energy              =    -276.00314479 Ry
     estimated scf accuracy    <       0.00000115 Ry

     iteration #  3     ecut=    90.00 Ry     beta= 0.70
     Davidson diagonalization with overlap
     ethr =  1.80E-09,  avg # of iterations =  2.5

     total cpu time spent up to now is      628.5 secs

     total energy              =    -276.00314509 Ry
     estimated scf accuracy    <       0.00000026 Ry

     iteration #  4     ecut=    90.00 Ry     beta= 0.70
     Davidson diagonalization with overlap
     ethr =  4.04E-10,  avg # of iterations =  2.5

     total cpu time spent up to now is      636.7 secs

     total energy              =    -276.00314515 Ry
     estimated scf accuracy    <       0.00000002 Ry

     iteration #  5     ecut=    90.00 Ry     beta= 0.70
     Davidson diagonalization with overlap
     ethr =  3.82E-11,  avg # of iterations =  2.3

     total cpu time spent up to now is      645.1 secs

     End of self-consistent calculation

     Number of k-points >= 100: set verbosity='high' to print the bands.

     highest occupied level (ev):    -2.2989

!    total energy              =    -276.00314515 Ry
     estimated scf accuracy    <          4.0E-09 Ry

     The total energy is the sum of the following terms:
     one-electron contribution =    -213.67829510 Ry
     hartree contribution      =     129.82979248 Ry
     xc contribution           =     -68.03060695 Ry
     ewald contribution        =    -124.12403557 Ry

     convergence has been achieved in   5 iterations

     Forces acting on atoms (cartesian axes, Ry/au):

     atom    1 type  2   force =     0.00000000    0.00227929   -0.00124405
     atom    2 type  2   force =     0.00000000   -0.00227933   -0.00124398
     atom    3 type  2   force =     0.00000000    0.00227930   -0.00124403
     atom    4 type  2   force =     0.00000000   -0.00227931   -0.00124399
     atom    5 type  2   force =     0.00000000   -0.00036757    0.00002774
     atom    6 type  2   force =     0.00000000    0.00036759    0.00002775
     atom    7 type  2   force =     0.00000000   -0.00036757    0.00002774
     atom    8 type  2   force =     0.00000000    0.00036759    0.00002775
     atom    9 type  1   force =     0.00000000   -0.00061454    0.00030124
     atom   10 type  1   force =     0.00000000    0.00061454    0.00030120
     atom   11 type  1   force =     0.00000000   -0.00061453    0.00030121
     atom   12 type  1   force =     0.00000000    0.00061453    0.00030119
     atom   13 type  1   force =     0.00000000   -0.00014445   -0.00030539
     atom   14 type  1   force =     0.00000000    0.00014448   -0.00030540
     atom   15 type  1   force =     0.00000000   -0.00014446   -0.00030540
     atom   16 type  1   force =     0.00000000    0.00014446   -0.00030540
     atom   17 type  1   force =     0.00059023   -0.00125632    0.00061022
     atom   18 type  1   force =    -0.00059022    0.00125632    0.00061023
     atom   19 type  1   force =     0.00059022    0.00125632    0.00061023
     atom   20 type  1   force =    -0.00059023   -0.00125632    0.00061022
     atom   21 type  1   force =     0.00059024   -0.00125633    0.00061023
     atom   22 type  1   force =    -0.00059023    0.00125632    0.00061023
     atom   23 type  1   force =     0.00059023    0.00125632    0.00061023
     atom   24 type  1   force =    -0.00059024   -0.00125633    0.00061023

     Total force =     0.006945     Total SCF correction =     0.000127


     Computing stress (Cartesian axis) and pressure

          total   stress  (Ry/bohr**3)                   (kbar)     P=       29.15
   0.00018030   0.00000000   0.00000000           26.52        0.00        0.00
   0.00000000   0.00020407  -0.00000000            0.00       30.02       -0.00
   0.00000000  -0.00000000   0.00021016            0.00       -0.00       30.92

     Energy error            =      1.2E-04 Ry
     Gradient error          =      2.3E-03 Ry/Bohr

     number of scf cycles    =   8
     number of bfgs steps    =   7

     energy             old  =    -276.0030241991 Ry
     energy             new  =    -276.0031451520 Ry

     CASE: energy            _new < energy            _old

     new trust radius        =       0.0039646864 bohr
     new conv_thr            =       0.0000000012 Ry


ATOMIC_POSITIONS (crystal)
O                0.0000000000        0.6682261605        0.0578870473
O                0.0000000000        0.3317738370        0.5578870385
O                0.5000000000        0.1682261669        0.0578870630
O                0.5000000000        0.8317738344        0.5578870565
O                0.5000000000        0.8356517219        0.9334136554
O                0.5000000000        0.1643482758        0.4334136548
O                0.0000000000        0.3356517181        0.9334136414
O                0.0000000000        0.6643482810        0.4334136469
H                0.0000000000        0.6662623178        0.2071396116
H                0.0000000000        0.3337376790        0.7071395999
H                0.5000000000        0.1662623171        0.2071396278
H                0.5000000000        0.8337376839        0.7071396193
H                0.0000000000        0.5348175117        0.0116204483
H                0.0000000000        0.4651824885        0.5116204354
H                0.5000000000        0.0348175175        0.0116204658
H                0.5000000000        0.9651824845        0.5116204527
H                0.6954231104        0.7673279594        0.9839696297
H                0.3045768855        0.2326720408        0.4839696205
H                0.6954231145        0.2326720408        0.4839696205
H                0.3045768896        0.7673279594        0.9839696297
H                0.1954231091        0.2673279617        0.9839696270
H                0.8045768878        0.7326720402        0.4839696234
H                0.1954231122        0.7326720402        0.4839696234
H                0.8045768909        0.2673279617        0.9839696270



     Writing config-only to output data dir ./iceIh/iceIh.save/ :
     XML data file
     NEW-OLD atomic charge density approx. for the potential

     total cpu time spent up to now is      653.0 secs

     per-process dynamical memory:    55.5 Mb

     Self-consistent Calculation

     iteration #  1     ecut=    90.00 Ry     beta= 0.70
     Davidson diagonalization with overlap
     ethr =  1.00E-06,  avg # of iterations =  2.6

     Threshold (ethr) on eigenvalues was too large:
     Diagonalizing with lowered threshold

     Davidson diagonalization with overlap
     ethr =  1.92E-08,  avg # of iterations =  2.8

     total cpu time spent up to now is      670.4 secs

     total energy              =    -276.00319047 Ry
     estimated scf accuracy    <       0.00001637 Ry

     iteration #  2     ecut=    90.00 Ry     beta= 0.70
     Davidson diagonalization with overlap
     ethr =  2.56E-08,  avg # of iterations =  3.0

     total cpu time spent up to now is      679.5 secs

     total energy              =    -276.00319351 Ry
     estimated scf accuracy    <       0.00000468 Ry

     iteration #  3     ecut=    90.00 Ry     beta= 0.70
     Davidson diagonalization with overlap
     ethr =  7.32E-09,  avg # of iterations =  3.0

     total cpu time spent up to now is      688.1 secs

     total energy              =    -276.00319475 Ry
     estimated scf accuracy    <       0.00000031 Ry

     iteration #  4     ecut=    90.00 Ry     beta= 0.70
     Davidson diagonalization with overlap
     ethr =  4.92E-10,  avg # of iterations =  2.3

     total cpu time spent up to now is      695.8 secs

     total energy              =    -276.00319479 Ry
     estimated scf accuracy    <       0.00000003 Ry

     iteration #  5     ecut=    90.00 Ry     beta= 0.70
     Davidson diagonalization with overlap
     ethr =  4.98E-11,  avg # of iterations =  3.3

     total cpu time spent up to now is      705.2 secs

     total energy              =    -276.00319480 Ry
     estimated scf accuracy    <          2.3E-09 Ry

     iteration #  6     ecut=    90.00 Ry     beta= 0.70
     Davidson diagonalization with overlap
     ethr =  3.53E-12,  avg # of iterations =  2.3

     total cpu time spent up to now is      713.1 secs

     End of self-consistent calculation

     Number of k-points >= 100: set verbosity='high' to print the bands.

     highest occupied level (ev):    -2.2983

!    total energy              =    -276.00319480 Ry
     estimated scf accuracy    <          8.4E-10 Ry

     The total energy is the sum of the following terms:
     one-electron contribution =    -213.61418199 Ry
     hartree contribution      =     129.80057420 Ry
     xc contribution           =     -68.02400671 Ry
     ewald contribution        =    -124.16558031 Ry

     convergence has been achieved in   6 iterations

     Forces acting on atoms (cartesian axes, Ry/au):

     atom    1 type  2   force =     0.00000000    0.00071400   -0.00045248
     atom    2 type  2   force =     0.00000000   -0.00071397   -0.00045252
     atom    3 type  2   force =     0.00000000    0.00071399   -0.00045250
     atom    4 type  2   force =     0.00000000   -0.00071398   -0.00045252
     atom    5 type  2   force =     0.00000000   -0.00114586   -0.00001175
     atom    6 type  2   force =     0.00000000    0.00114586   -0.00001176
     atom    7 type  2   force =     0.00000000   -0.00114586   -0.00001175
     atom    8 type  2   force =     0.00000000    0.00114586   -0.00001176
     atom    9 type  1   force =     0.00000000   -0.00043207   -0.00046710
     atom   10 type  1   force =     0.00000000    0.00043207   -0.00046708
     atom   11 type  1   force =     0.00000000   -0.00043206   -0.00046710
     atom   12 type  1   force =     0.00000000    0.00043206   -0.00046709
     atom   13 type  1   force =     0.00000000    0.00052277    0.00010436
     atom   14 type  1   force =     0.00000000   -0.00052279    0.00010438
     atom   15 type  1   force =     0.00000000    0.00052278    0.00010435
     atom   16 type  1   force =     0.00000000   -0.00052279    0.00010437
     atom   17 type  1   force =     0.00060723   -0.00045495    0.00041349
     atom   18 type  1   force =    -0.00060723    0.00045495    0.00041350
     atom   19 type  1   force =     0.00060723    0.00045495    0.00041350
     atom   20 type  1   force =    -0.00060723   -0.00045495    0.00041349
     atom   21 type  1   force =     0.00060723   -0.00045495    0.00041349
     atom   22 type  1   force =    -0.00060723    0.00045495    0.00041350
     atom   23 type  1   force =     0.00060723    0.00045495    0.00041350
     atom   24 type  1   force =    -0.00060723   -0.00045495    0.00041349

     Total force =     0.004104     Total SCF correction =     0.000034


     Computing stress (Cartesian axis) and pressure

          total   stress  (Ry/bohr**3)                   (kbar)     P=       28.26
   0.00018199   0.00000000   0.00000000           26.77        0.00        0.00
   0.00000000   0.00019522   0.00000000            0.00       28.72        0.00
   0.00000000   0.00000000   0.00019904            0.00        0.00       29.28

     Energy error            =      5.0E-05 Ry
     Gradient error          =      1.1E-03 Ry/Bohr

     number of scf cycles    =   9
     number of bfgs steps    =   8

     energy             old  =    -276.0031451520 Ry
     energy             new  =    -276.0031948038 Ry

     CASE: energy            _new < energy            _old

     new trust radius        =       0.0023852174 bohr
     new conv_thr            =       0.0000000010 Ry


ATOMIC_POSITIONS (crystal)
O                0.0000000000        0.6683785553        0.0578070016
O                0.0000000000        0.3316214443        0.5578069899
O                0.5000000000        0.1683785609        0.0578070155
O                0.5000000000        0.8316214414        0.5578070080
O                0.5000000000        0.8355556968        0.9334870520
O                0.5000000000        0.1644443009        0.4334870512
O                0.0000000000        0.3355556923        0.9334870384
O                0.0000000000        0.6644443062        0.4334870430
H                0.0000000000        0.6662208458        0.2070895726
H                0.0000000000        0.3337791512        0.7070895637
H                0.5000000000        0.1662208463        0.2070895882
H                0.5000000000        0.8337791549        0.7070895817
H                0.0000000000        0.5349215367        0.0115521585
H                0.0000000000        0.4650784618        0.5115521479
H                0.5000000000        0.0349215431        0.0115521754
H                0.5000000000        0.9650784578        0.5115521646
H                0.6954801680        0.7671682745        0.9840321181
H                0.3045198280        0.2328317257        0.4840321102
H                0.6954801720        0.2328317257        0.4840321102
H                0.3045198320        0.7671682745        0.9840321181
H                0.1954801669        0.2671682764        0.9840321155
H                0.8045198296        0.7328317255        0.4840321131
H                0.1954801704        0.7328317255        0.4840321131
H                0.8045198331        0.2671682764        0.9840321155



     Writing config-only to output data dir ./iceIh/iceIh.save/ :
     XML data file
     NEW-OLD atomic charge density approx. for the potential

     total cpu time spent up to now is      721.1 secs

     per-process dynamical memory:    55.5 Mb

     Self-consistent Calculation

     iteration #  1     ecut=    90.00 Ry     beta= 0.70
     Davidson diagonalization with overlap
     ethr =  1.00E-06,  avg # of iterations =  2.0

     Threshold (ethr) on eigenvalues was too large:
     Diagonalizing with lowered threshold

     Davidson diagonalization with overlap
     ethr =  1.09E-08,  avg # of iterations =  2.9

     total cpu time spent up to now is      738.0 secs

     total energy              =    -276.00321488 Ry
     estimated scf accuracy    <       0.00000828 Ry

     iteration #  2     ecut=    90.00 Ry     beta= 0.70
     Davidson diagonalization with overlap
     ethr =  1.29E-08,  avg # of iterations =  3.0

     total cpu time spent up to now is      747.3 secs

     total energy              =    -276.00321637 Ry
     estimated scf accuracy    <       0.00000491 Ry

     iteration #  3     ecut=    90.00 Ry     beta= 0.70
     Davidson diagonalization with overlap
     ethr =  7.67E-09,  avg # of iterations =  2.9

     total cpu time spent up to now is      755.7 secs

     total energy              =    -276.00321754 Ry
     estimated scf accuracy    <       0.00000007 Ry

     iteration #  4     ecut=    90.00 Ry     beta= 0.70
     Davidson diagonalization with overlap
     ethr =  1.12E-10,  avg # of iterations =  5.0

     total cpu time spent up to now is      767.6 secs

     total energy              =    -276.00321755 Ry
     estimated scf accuracy    <       0.00000012 Ry

     iteration #  5     ecut=    90.00 Ry     beta= 0.70
     Davidson diagonalization with overlap
     ethr =  1.12E-10,  avg # of iterations =  3.4

     total cpu time spent up to now is      777.6 secs

     total energy              =    -276.00321758 Ry
     estimated scf accuracy    <       0.00000001 Ry

     iteration #  6     ecut=    90.00 Ry     beta= 0.70
     Davidson diagonalization with overlap
     ethr =  1.87E-11,  avg # of iterations =  2.0

     total cpu time spent up to now is      785.1 secs

     total energy              =    -276.00321758 Ry
     estimated scf accuracy    <          5.6E-09 Ry

     iteration #  7     ecut=    90.00 Ry     beta= 0.70
     Davidson diagonalization with overlap
     ethr =  8.81E-12,  avg # of iterations =  2.4

     total cpu time spent up to now is      792.6 secs

     End of self-consistent calculation

     Number of k-points >= 100: set verbosity='high' to print the bands.

     highest occupied level (ev):    -2.2984

!    total energy              =    -276.00321758 Ry
     estimated scf accuracy    <          4.6E-10 Ry

     The total energy is the sum of the following terms:
     one-electron contribution =    -213.58332019 Ry
     hartree contribution      =     129.78660069 Ry
     xc contribution           =     -68.02086198 Ry
     ewald contribution        =    -124.18563611 Ry

     convergence has been achieved in   7 iterations

     Forces acting on atoms (cartesian axes, Ry/au):

     atom    1 type  2   force =     0.00000000   -0.00028692   -0.00007978
     atom    2 type  2   force =     0.00000000    0.00028689   -0.00007975
     atom    3 type  2   force =     0.00000000   -0.00028691   -0.00007978
     atom    4 type  2   force =     0.00000000    0.00028689   -0.00007976
     atom    5 type  2   force =     0.00000000   -0.00123446    0.00002041
     atom    6 type  2   force =     0.00000000    0.00123446    0.00002041
     atom    7 type  2   force =     0.00000000   -0.00123446    0.00002041
     atom    8 type  2   force =     0.00000000    0.00123447    0.00002041
     atom    9 type  1   force =     0.00000000   -0.00014576   -0.00052039
     atom   10 type  1   force =     0.00000000    0.00014576   -0.00052042
     atom   11 type  1   force =     0.00000000   -0.00014575   -0.00052040
     atom   12 type  1   force =     0.00000000    0.00014575   -0.00052041
     atom   13 type  1   force =     0.00000000    0.00070696    0.00009854
     atom   14 type  1   force =     0.00000000   -0.00070694    0.00009855
     atom   15 type  1   force =     0.00000000    0.00070695    0.00009854
     atom   16 type  1   force =     0.00000000   -0.00070694    0.00009854
     atom   17 type  1   force =     0.00033160   -0.00007729    0.00024061
     atom   18 type  1   force =    -0.00033159    0.00007729    0.00024061
     atom   19 type  1   force =     0.00033159    0.00007729    0.00024061
     atom   20 type  1   force =    -0.00033160   -0.00007729    0.00024061
     atom   21 type  1   force =     0.00033160   -0.00007729    0.00024061
     atom   22 type  1   force =    -0.00033159    0.00007729    0.00024061
     atom   23 type  1   force =     0.00033159    0.00007729    0.00024061
     atom   24 type  1   force =    -0.00033160   -0.00007729    0.00024061

[...]
     atom   21 type  1   force =    -0.00003345   -0.00007098   -0.00002049
     atom   22 type  1   force =     0.00003345    0.00007099   -0.00002049
     atom   23 type  1   force =    -0.00003345    0.00007099   -0.00002049
     atom   24 type  1   force =     0.00003345   -0.00007098   -0.00002049

     Total force =     0.000511     Total SCF correction =     0.000023


     Computing stress (Cartesian axis) and pressure

          total   stress  (Ry/bohr**3)                   (kbar)     P=       27.65
   0.00018725   0.00000000   0.00000000           27.55        0.00        0.00
   0.00000000   0.00019285  -0.00000000            0.00       28.37       -0.00
   0.00000000  -0.00000000   0.00018375            0.00       -0.00       27.03

     Energy error            =      6.1E-07 Ry
     Gradient error          =      1.3E-04 Ry/Bohr

     number of scf cycles    =  34
     number of bfgs steps    =  33

     energy             old  =    -276.0035330216 Ry
     energy             new  =    -276.0035336315 Ry

     CASE: energy            _new < energy            _old

     new trust radius        =       0.0035938728 bohr
     new conv_thr            =       0.0000000010 Ry


ATOMIC_POSITIONS (crystal)
O                0.0000000000        0.6574769899        0.0576632037
O                0.0000000000        0.3425230175        0.5576632481
O                0.5000000000        0.1574769506        0.0576631371
O                0.5000000000        0.8425230423        0.5576631696
O                0.5000000000        0.8244722873        0.9334736244
O                0.5000000000        0.1755277170        0.4334736128
O                0.0000000000        0.3244723243        0.9334736844
O                0.0000000000        0.6755276844        0.4334736529
H                0.0000000000        0.6617359162        0.2066979410
H                0.0000000000        0.3382640964        0.7066979842
H                0.5000000000        0.1617358866        0.2066978673
H                0.5000000000        0.8382641028        0.7066979014
H                0.0000000000        0.5231386481        0.0148911619
H                0.0000000000        0.4768613538        0.5148911945
H                0.5000000000        0.0231386077        0.0148910819
H                0.5000000000        0.9768613826        0.5148911185
H                0.6956261382        0.7554391196        0.9826370579
H                0.3043738728        0.2445608779        0.4826370643
H                0.6956261272        0.2445608779        0.4826370643
H                0.3043738618        0.7554391196        0.9826370579
H                0.1956261391        0.2554391258        0.9826370648
H                0.8043738695        0.7445608731        0.4826370542
H                0.1956261305        0.7445608731        0.4826370542
H                0.8043738609        0.2554391258        0.9826370648



     Writing config-only to output data dir ./iceIh/iceIh.save/ :
     XML data file
     NEW-OLD atomic charge density approx. for the potential

     total cpu time spent up to now is     2471.0 secs

     per-process dynamical memory:    55.7 Mb

     Self-consistent Calculation

     iteration #  1     ecut=    90.00 Ry     beta= 0.70
     Davidson diagonalization with overlap
     ethr =  1.00E-06,  avg # of iterations =  2.9

     Threshold (ethr) on eigenvalues was too large:
     Diagonalizing with lowered threshold

     Davidson diagonalization with overlap
     ethr =  8.12E-09,  avg # of iterations =  4.3

     total cpu time spent up to now is     2491.1 secs

     total energy              =    -276.00353299 Ry
     estimated scf accuracy    <       0.00000798 Ry

     iteration #  2     ecut=    90.00 Ry     beta= 0.70
     Davidson diagonalization with overlap
     ethr =  1.25E-08,  avg # of iterations =  2.0

     total cpu time spent up to now is     2498.3 secs

     total energy              =    -276.00353416 Ry
     estimated scf accuracy    <       0.00000041 Ry

     iteration #  3     ecut=    90.00 Ry     beta= 0.70
     Davidson diagonalization with overlap
     ethr =  6.40E-10,  avg # of iterations =  2.5

     total cpu time spent up to now is     2507.0 secs

     total energy              =    -276.00353424 Ry
     estimated scf accuracy    <       0.00000014 Ry

     iteration #  4     ecut=    90.00 Ry     beta= 0.70
     Davidson diagonalization with overlap
     ethr =  2.16E-10,  avg # of iterations =  2.8

     total cpu time spent up to now is     2515.0 secs

     total energy              =    -276.00353428 Ry
     estimated scf accuracy    <          7.2E-09 Ry

     iteration #  5     ecut=    90.00 Ry     beta= 0.70
     Davidson diagonalization with overlap
     ethr =  1.12E-11,  avg # of iterations =  3.0

     total cpu time spent up to now is     2524.3 secs

     total energy              =    -276.00353428 Ry
     estimated scf accuracy    <          3.8E-09 Ry

     iteration #  6     ecut=    90.00 Ry     beta= 0.70
     Davidson diagonalization with overlap
     ethr =  5.95E-12,  avg # of iterations =  2.6

     total cpu time spent up to now is     2531.9 secs

     End of self-consistent calculation

     Number of k-points >= 100: set verbosity='high' to print the bands.

     highest occupied level (ev):    -2.3102

!    total energy              =    -276.00353428 Ry
     estimated scf accuracy    <          1.8E-10 Ry

     The total energy is the sum of the following terms:
     one-electron contribution =    -213.40737104 Ry
     hartree contribution      =     129.69281944 Ry
     xc contribution           =     -68.02036220 Ry
     ewald contribution        =    -124.26862047 Ry

     convergence has been achieved in   6 iterations

     Forces acting on atoms (cartesian axes, Ry/au):

     atom    1 type  2   force =     0.00000000    0.00008361    0.00003651
     atom    2 type  2   force =     0.00000000   -0.00008359    0.00003646
     atom    3 type  2   force =     0.00000000    0.00008361    0.00003652
     atom    4 type  2   force =     0.00000000   -0.00008360    0.00003648
     atom    5 type  2   force =     0.00000000    0.00001199   -0.00011943
     atom    6 type  2   force =     0.00000000   -0.00001200   -0.00011942
     atom    7 type  2   force =     0.00000000    0.00001198   -0.00011943
     atom    8 type  2   force =     0.00000000   -0.00001200   -0.00011943
     atom    9 type  1   force =     0.00000000    0.00000377    0.00009402
     atom   10 type  1   force =     0.00000000   -0.00000377    0.00009403
     atom   11 type  1   force =     0.00000000    0.00000377    0.00009404
     atom   12 type  1   force =     0.00000000   -0.00000377    0.00009404
     atom   13 type  1   force =     0.00000000    0.00000338    0.00004418
     atom   14 type  1   force =     0.00000000   -0.00000340    0.00004417
     atom   15 type  1   force =     0.00000000    0.00000339    0.00004420
     atom   16 type  1   force =     0.00000000   -0.00000340    0.00004418
     atom   17 type  1   force =    -0.00003425   -0.00005051   -0.00002765
     atom   18 type  1   force =     0.00003424    0.00005051   -0.00002765
     atom   19 type  1   force =    -0.00003424    0.00005051   -0.00002765
     atom   20 type  1   force =     0.00003425   -0.00005051   -0.00002765
     atom   21 type  1   force =    -0.00003425   -0.00005051   -0.00002764
     atom   22 type  1   force =     0.00003424    0.00005051   -0.00002764
     atom   23 type  1   force =    -0.00003424    0.00005051   -0.00002764
     atom   24 type  1   force =     0.00003425   -0.00005051   -0.00002764

     Total force =     0.000412     Total SCF correction =     0.000026


     Computing stress (Cartesian axis) and pressure

          total   stress  (Ry/bohr**3)                   (kbar)     P=       27.61
   0.00018725   0.00000000   0.00000000           27.55        0.00        0.00
   0.00000000   0.00019254   0.00000000            0.00       28.32        0.00
   0.00000000   0.00000000   0.00018322            0.00        0.00       26.95

     Energy error            =      6.5E-07 Ry
     Gradient error          =      1.2E-04 Ry/Bohr

     number of scf cycles    =  35
     number of bfgs steps    =  34

     energy             old  =    -276.0035336315 Ry
     energy             new  =    -276.0035342779 Ry

     CASE: energy            _new < energy            _old

     new trust radius        =       0.0053908092 bohr
     new conv_thr            =       0.0000000010 Ry


ATOMIC_POSITIONS (crystal)
O                0.0000000000        0.6571466003        0.0576668763
O                0.0000000000        0.3428534079        0.5576669137
O                0.5000000000        0.1571465592        0.0576668117
O                0.5000000000        0.8428534344        0.5576668378
O                0.5000000000        0.8241423281        0.9334578449
O                0.5000000000        0.1758576748        0.4334578347
O                0.0000000000        0.3241423651        0.9334579060
O                0.0000000000        0.6758576422        0.4334578753
H                0.0000000000        0.6616215557        0.2066933485
H                0.0000000000        0.3383784563        0.7066933883
H                0.5000000000        0.1616215235        0.2066932782
H                0.5000000000        0.8383784661        0.7066933078
H                0.0000000000        0.5227694755        0.0150303950
H                0.0000000000        0.4772305250        0.5150304237
H                0.5000000000        0.0227694346        0.0150303171
H                0.5000000000        0.9772305554        0.5150303488
H                0.6956159084        0.7550727520        0.9825757922
H                0.3043841004        0.2449272462        0.4825757962
H                0.6956158996        0.2449272462        0.4825757962
H                0.3043840916        0.7550727520        0.9825757922
H                0.1956159085        0.2550727590        0.9825758020
H                0.8043840977        0.7449272408        0.4825757887
H                0.1956159023        0.7449272408        0.4825757887
H                0.8043840915        0.2550727590        0.9825758020



     Writing config-only to output data dir ./iceIh/iceIh.save/ :
     XML data file
     NEW-OLD atomic charge density approx. for the potential

     total cpu time spent up to now is     2539.8 secs

     per-process dynamical memory:    55.7 Mb

     Self-consistent Calculation

     iteration #  1     ecut=    90.00 Ry     beta= 0.70
     Davidson diagonalization with overlap
     ethr =  1.00E-06,  avg # of iterations =  3.0

     Threshold (ethr) on eigenvalues was too large:
     Diagonalizing with lowered threshold

     Davidson diagonalization with overlap
     ethr =  2.34E-08,  avg # of iterations =  3.0

     total cpu time spent up to now is     2558.8 secs

     total energy              =    -276.00353199 Ry
     estimated scf accuracy    <       0.00001817 Ry

     iteration #  2     ecut=    90.00 Ry     beta= 0.70
     Davidson diagonalization with overlap
     ethr =  2.84E-08,  avg # of iterations =  2.0

     total cpu time spent up to now is     2565.8 secs

     total energy              =    -276.00353460 Ry
     estimated scf accuracy    <       0.00000088 Ry

     iteration #  3     ecut=    90.00 Ry     beta= 0.70
     Davidson diagonalization with overlap
     ethr =  1.38E-09,  avg # of iterations =  2.7

     total cpu time spent up to now is     2574.7 secs

     total energy              =    -276.00353481 Ry
     estimated scf accuracy    <       0.00000023 Ry

     iteration #  4     ecut=    90.00 Ry     beta= 0.70
     Davidson diagonalization with overlap
     ethr =  3.56E-10,  avg # of iterations =  3.0

     total cpu time spent up to now is     2583.1 secs

     total energy              =    -276.00353487 Ry
     estimated scf accuracy    <       0.00000003 Ry

     iteration #  5     ecut=    90.00 Ry     beta= 0.70
     Davidson diagonalization with overlap
     ethr =  4.22E-11,  avg # of iterations =  2.0

     total cpu time spent up to now is     2591.2 secs

     total energy              =    -276.00353487 Ry
     estimated scf accuracy    <          3.8E-09 Ry

     iteration #  6     ecut=    90.00 Ry     beta= 0.70
     Davidson diagonalization with overlap
     ethr =  6.00E-12,  avg # of iterations =  3.9

     total cpu time spent up to now is     2600.1 secs

     End of self-consistent calculation

     Number of k-points >= 100: set verbosity='high' to print the bands.

     highest occupied level (ev):    -2.3108

!    total energy              =    -276.00353487 Ry
     estimated scf accuracy    <          7.5E-11 Ry

     The total energy is the sum of the following terms:
     one-electron contribution =    -213.39374109 Ry
     hartree contribution      =     129.68581718 Ry
     xc contribution           =     -68.02000043 Ry
     ewald contribution        =    -124.27561053 Ry

     convergence has been achieved in   6 iterations

     Forces acting on atoms (cartesian axes, Ry/au):

     atom    1 type  2   force =     0.00000000    0.00002925    0.00006768
     atom    2 type  2   force =     0.00000000   -0.00002927    0.00006768
     atom    3 type  2   force =     0.00000000    0.00002926    0.00006770
     atom    4 type  2   force =     0.00000000   -0.00002927    0.00006769
     atom    5 type  2   force =     0.00000000   -0.00001492   -0.00008811
     atom    6 type  2   force =     0.00000000    0.00001492   -0.00008810
     atom    7 type  2   force =     0.00000000   -0.00001492   -0.00008811
     atom    8 type  2   force =     0.00000000    0.00001492   -0.00008810
     atom    9 type  1   force =     0.00000000   -0.00000454    0.00006806
     atom   10 type  1   force =     0.00000000    0.00000453    0.00006804
     atom   11 type  1   force =     0.00000000   -0.00000453    0.00006808
     atom   12 type  1   force =     0.00000000    0.00000454    0.00006806
     atom   13 type  1   force =     0.00000000    0.00004423    0.00002850
     atom   14 type  1   force =     0.00000000   -0.00004422    0.00002849
     atom   15 type  1   force =     0.00000000    0.00004423    0.00002852
     atom   16 type  1   force =     0.00000000   -0.00004422    0.00002850
     atom   17 type  1   force =    -0.00002737   -0.00002263   -0.00003808
     atom   18 type  1   force =     0.00002737    0.00002263   -0.00003808
     atom   19 type  1   force =    -0.00002737    0.00002263   -0.00003808
     atom   20 type  1   force =     0.00002737   -0.00002263   -0.00003808
     atom   21 type  1   force =    -0.00002737   -0.00002263   -0.00003807
     atom   22 type  1   force =     0.00002737    0.00002263   -0.00003807
     atom   23 type  1   force =    -0.00002737    0.00002263   -0.00003807
     atom   24 type  1   force =     0.00002737   -0.00002263   -0.00003807

     Total force =     0.000324     Total SCF correction =     0.000023


     Computing stress (Cartesian axis) and pressure

          total   stress  (Ry/bohr**3)                   (kbar)     P=       27.56
   0.00018725   0.00000000   0.00000000           27.55        0.00        0.00
   0.00000000   0.00019216  -0.00000000            0.00       28.27       -0.00
   0.00000000  -0.00000000   0.00018265            0.00       -0.00       26.87

     Energy error            =      5.9E-07 Ry
     Gradient error          =      8.8E-05 Ry/Bohr

     bfgs converged in  36 scf cycles and  35 bfgs steps
     (criteria: energy <  1.0E-04 Ry, force <  1.0E-04 Ry/Bohr)

     End of BFGS Geometry Optimization

     Final energy             =    -276.0035348716 Ry

     File ./iceIh/iceIh.bfgs deleted, as requested
Begin final coordinates

ATOMIC_POSITIONS (crystal)
O                0.0000000000        0.6571466003        0.0576668763
O                0.0000000000        0.3428534079        0.5576669137
O                0.5000000000        0.1571465592        0.0576668117
O                0.5000000000        0.8428534344        0.5576668378
O                0.5000000000        0.8241423281        0.9334578449
O                0.5000000000        0.1758576748        0.4334578347
O                0.0000000000        0.3241423651        0.9334579060
O                0.0000000000        0.6758576422        0.4334578753
H                0.0000000000        0.6616215557        0.2066933485
H                0.0000000000        0.3383784563        0.7066933883
H                0.5000000000        0.1616215235        0.2066932782
H                0.5000000000        0.8383784661        0.7066933078
H                0.0000000000        0.5227694755        0.0150303950
H                0.0000000000        0.4772305250        0.5150304237
H                0.5000000000        0.0227694346        0.0150303171
H                0.5000000000        0.9772305554        0.5150303488
H                0.6956159084        0.7550727520        0.9825757922
H                0.3043841004        0.2449272462        0.4825757962
H                0.6956158996        0.2449272462        0.4825757962
H                0.3043840916        0.7550727520        0.9825757922
H                0.1956159085        0.2550727590        0.9825758020
H                0.8043840977        0.7449272408        0.4825757887
H                0.1956159023        0.7449272408        0.4825757887
H                0.8043840915        0.2550727590        0.9825758020
End final coordinates



     Writing all to output data dir ./iceIh/iceIh.save/ :
     XML data file, charge density, pseudopotentials, collected wavefunctions

     init_run     :      4.03s CPU      4.10s WALL (       1 calls)
     electrons    :   2279.71s CPU   2320.74s WALL (      36 calls)
     update_pot   :      0.41s CPU      0.44s WALL (      35 calls)
     forces       :     17.56s CPU     17.62s WALL (      36 calls)
     stress       :    258.92s CPU    259.07s WALL (      36 calls)

     Called by init_run:
     wfcinit      :      3.51s CPU      3.56s WALL (       1 calls)
     potinit      :      0.02s CPU      0.03s WALL (       1 calls)
     hinit0       :      0.42s CPU      0.43s WALL (       1 calls)

     Called by electrons:
     c_bands      :   2039.70s CPU   2075.79s WALL (     253 calls)
     sum_band     :    236.48s CPU    239.07s WALL (     253 calls)
     v_of_rho     :      2.49s CPU      2.52s WALL (     267 calls)
     newd         :      0.48s CPU      0.48s WALL (     267 calls)
     mix_rho      :      0.34s CPU      0.35s WALL (     253 calls)

     Called by c_bands:
     init_us_2    :     29.24s CPU     30.36s WALL (   66585 calls)
     cegterg      :   1964.52s CPU   1984.68s WALL (   29095 calls)

     Called by *egterg:
     cdiaghg      :    192.28s CPU    193.17s WALL (  109710 calls)
     h_psi        :   1457.88s CPU   1475.66s WALL (  116380 calls)
     s_psi        :     58.38s CPU     58.81s WALL (  116380 calls)
     g_psi        :      5.34s CPU      5.36s WALL (   87170 calls)

     Called by h_psi:
     h_psi:calbec :     89.94s CPU     90.84s WALL (  116380 calls)
     vloc_psi     :   1297.24s CPU   1313.36s WALL (  116380 calls)
     add_vuspsi   :     61.98s CPU     62.59s WALL (  116380 calls)

     General routines
     calbec       :    128.46s CPU    129.75s WALL (  166175 calls)
     fft          :      1.74s CPU      1.75s WALL (    3282 calls)
     ffts         :      0.11s CPU      0.11s WALL (     253 calls)
     fftw         :   1358.25s CPU   1374.57s WALL ( 6817882 calls)

     Parallel routines

     PWSCF        :  42m46.38s CPU  43m36.94s WALL


   This run was terminated on:  19:10:42  31Mar2026            

=------------------------------------------------------------------------------=
   JOB DONE.
=------------------------------------------------------------------------------=
