
     Program PWSCF v.7.3.1 starts on 20Mar2026 at 19:31:18 

     This program is part of the open-source Quantum ESPRESSO suite
     for quantum simulation of materials; please cite
         "P. Giannozzi et al., J. Phys.:Condens. Matter 21 395502 (2009);
         "P. Giannozzi et al., J. Phys.:Condens. Matter 29 465901 (2017);
         "P. Giannozzi et al., J. Chem. Phys. 152 154105 (2020);
          URL http://www.quantum-espresso.org", 
     in publications or presentations arising from this work. More details at
     http://www.quantum-espresso.org/quote

     Parallel version (MPI), running on   128 processors

     MPI processes distributed on     1 nodes
     238302 MiB available memory on the printing compute node when the environment starts

     Waiting for input...
     Reading input from standard input

     Current dimensions of program PWSCF are:
     Max number of different atomic species (ntypx) = 10
     Max number of k-points (npk) =  40000
     Max angular momentum in pseudopotentials (lmaxx) =  4
     Found identity + ( -0.5000 -0.5000  0.0000) symmetry
     This is a supercell, fractional translations are disabled

     K-points division:     npool     =       4
     R & G space division:  proc/nbgrp/npool/nimage =      32
     Subspace diagonalization in iterative solution of the eigenvalue problem:
     a serial algorithm will be used


     Parallelization info
     --------------------
     sticks:   dense  smooth     PW     G-vecs:    dense   smooth      PW
     Min          98      98     27                 5124     5124     749
     Max          99      99     28                 5127     5127     754
     Sum        3151    3151    875               163997   163997   24031

     Using Slab Decomposition



     bravais-lattice index     =            8
     lattice parameter (alat)  =       7.9631  a.u.
     unit-cell volume          =    1423.6336 (a.u.)^3
     number of atoms/cell      =           24
     number of atomic types    =            2
     number of electrons       =        64.00
     number of Kohn-Sham states=           32
     kinetic-energy cutoff     =      90.0000  Ry
     charge density cutoff     =     360.0000  Ry
     scf convergence threshold =      1.0E-07
     mixing beta               =       0.7000
     number of iterations used =            8  plain     mixing
     Exchange-correlation=  SLA  PW   PBE  PBE
                           (   1   4   3   4   0   0   0)

     celldm(1)=   7.963063  celldm(2)=   1.732119  celldm(3)=   1.627721
     celldm(4)=   0.000000  celldm(5)=   0.000000  celldm(6)=   0.000000

     crystal axes: (cart. coord. in units of alat)
               a(1) = (   1.000000   0.000000   0.000000 )  
               a(2) = (   0.000000   1.732119   0.000000 )  
               a(3) = (   0.000000   0.000000   1.627721 )  

     reciprocal axes: (cart. coord. in units 2 pi/alat)
               b(1) = (  1.000000  0.000000  0.000000 )  
               b(2) = (  0.000000  0.577328  0.000000 )  
               b(3) = (  0.000000  0.000000  0.614356 )  


     PseudoPot. # 1 for H  read from file:
     ./H.pbe-van_ak.UPF
     MD5 check sum: 077eb6d537518a38cb46c6de387227b7
     Pseudo is Ultrasoft, Zval =  1.0
     Generated by new atomic code, or converted to UPF format
     Using radial grid of  615 points,  1 beta functions with: 
                l(1) =   0
     Q(r) pseudized with  8 coefficients,  rinner =    0.800

     PseudoPot. # 2 for O  read from file:
     ./O.pbe-van_ak.UPF
     MD5 check sum: 78c19812648e8988a0fe644b0f25305e
     Pseudo is Ultrasoft, Zval =  6.0
     Generated by new atomic code, or converted to UPF format
     Using radial grid of  737 points,  4 beta functions with: 
                l(1) =   0
                l(2) =   0
                l(3) =   1
                l(4) =   1
     Q(r) pseudized with  8 coefficients,  rinner =    0.800   0.800   0.800


     atomic species   valence    mass     pseudopotential
     H                 1.00     1.00800     H ( 1.00)
     O                 6.00    16.00000     O ( 1.00)

      2 Sym. Ops. (no inversion) found



   Cartesian axes

     site n.     atom                  positions (alat units)
         1        O      tau(   1) = (   0.0000000   1.1515127   0.1027092  )
         2        O      tau(   2) = (   0.0000000   0.5806063   0.9165697  )
         3        O      tau(   3) = (   0.5000000   0.2854532   0.1027092  )
         4        O      tau(   4) = (   0.5000000   1.4466659   0.9165697  )
         5        O      tau(   5) = (   0.5000000   1.4298643   1.5250118  )
         6        O      tau(   6) = (   0.5000000   0.3022548   0.7111513  )
         7        O      tau(   7) = (   0.0000000   0.5638048   1.5250118  )
         8        O      tau(   8) = (   0.0000000   1.1683143   0.7111513  )
         9        H      tau(   9) = (   0.0000000   1.1494343   0.3195216  )
        10        H      tau(  10) = (   0.0000000   0.5826848   1.1333822  )
        11        H      tau(  11) = (   0.5000000   0.2833747   0.3195216  )
        12        H      tau(  12) = (   0.5000000   1.4487443   1.1333822  )
        13        H      tau(  13) = (   0.0000000   0.9289355   0.0297873  )
        14        H      tau(  14) = (   0.0000000   0.8031836   0.8436478  )
        15        H      tau(  15) = (   0.5000000   0.0628759   0.0297873  )
        16        H      tau(  16) = (   0.5000000   1.6692431   0.8436478  )
        17        H      tau(  17) = (   0.6766000   1.3420459   1.5979337  )
        18        H      tau(  18) = (   0.3234000   0.3900732   0.7840732  )
        19        H      tau(  19) = (   0.6766000   0.3900732   0.7840732  )
        20        H      tau(  20) = (   0.3234000   1.3420459   1.5979337  )
        21        H      tau(  21) = (   0.1766000   0.4759863   1.5979337  )
        22        H      tau(  22) = (   0.8234000   1.2561327   0.7840732  )
        23        H      tau(  23) = (   0.1766000   1.2561327   0.7840732  )
        24        H      tau(  24) = (   0.8234000   0.4759863   1.5979337  )

     number of k points=   460

     Number of k-points >= 100: set verbosity='high' to print them.

     Dense  grid:   163997 G-vectors     FFT dimensions: (  50,  90,  80)

     Estimated max dynamical RAM per process >      43.28 MB

     Estimated total dynamical RAM >       5.29 GB

     Initial potential from superposition of free atoms

     starting charge      63.9998, renormalised to      64.0000
     Starting wfcs are   48 randomized atomic wfcs

     total cpu time spent up to now is        4.6 secs

     per-process dynamical memory:    51.0 Mb

     Self-consistent Calculation

     iteration #  1     ecut=    90.00 Ry     beta= 0.70
     Davidson diagonalization with overlap
     ethr =  1.00E-02,  avg # of iterations =  2.0

     total cpu time spent up to now is       13.0 secs

     total energy              =    -274.50171577 Ry
     estimated scf accuracy    <       3.15730064 Ry

     iteration #  2     ecut=    90.00 Ry     beta= 0.70
     Davidson diagonalization with overlap
     ethr =  4.93E-03,  avg # of iterations =  3.0

     total cpu time spent up to now is       23.5 secs

     total energy              =    -275.53426445 Ry
     estimated scf accuracy    <       1.25369606 Ry

     iteration #  3     ecut=    90.00 Ry     beta= 0.70
     Davidson diagonalization with overlap
     ethr =  1.96E-03,  avg # of iterations =  2.0

     total cpu time spent up to now is       31.3 secs

     total energy              =    -275.67580596 Ry
     estimated scf accuracy    <       0.05164027 Ry

     iteration #  4     ecut=    90.00 Ry     beta= 0.70
     Davidson diagonalization with overlap
     ethr =  8.07E-05,  avg # of iterations =  4.0

     total cpu time spent up to now is       42.8 secs

     total energy              =    -275.70995093 Ry
     estimated scf accuracy    <       0.05840395 Ry

     iteration #  5     ecut=    90.00 Ry     beta= 0.70
     Davidson diagonalization with overlap
     ethr =  8.07E-05,  avg # of iterations =  2.0

     total cpu time spent up to now is       50.7 secs

     total energy              =    -275.71355546 Ry
     estimated scf accuracy    <       0.00695171 Ry

     iteration #  6     ecut=    90.00 Ry     beta= 0.70
     Davidson diagonalization with overlap
     ethr =  1.09E-05,  avg # of iterations =  2.0

     total cpu time spent up to now is       59.0 secs

     total energy              =    -275.71498046 Ry
     estimated scf accuracy    <       0.00046339 Ry

     iteration #  7     ecut=    90.00 Ry     beta= 0.70
     Davidson diagonalization with overlap
     ethr =  7.24E-07,  avg # of iterations =  4.0

     total cpu time spent up to now is       70.4 secs

     total energy              =    -275.71528032 Ry
     estimated scf accuracy    <       0.00009602 Ry

     iteration #  8     ecut=    90.00 Ry     beta= 0.70
     Davidson diagonalization with overlap
     ethr =  1.50E-07,  avg # of iterations =  2.0

     total cpu time spent up to now is       78.7 secs

     total energy              =    -275.71530093 Ry
     estimated scf accuracy    <       0.00000139 Ry

     iteration #  9     ecut=    90.00 Ry     beta= 0.70
     Davidson diagonalization with overlap
     ethr =  2.17E-09,  avg # of iterations =  6.0

     total cpu time spent up to now is       93.3 secs

     total energy              =    -275.71529814 Ry
     estimated scf accuracy    <       0.00001175 Ry

     iteration # 10     ecut=    90.00 Ry     beta= 0.70
     Davidson diagonalization with overlap
     ethr =  2.17E-09,  avg # of iterations =  5.0

     total cpu time spent up to now is      107.7 secs

     total energy              =    -275.71530189 Ry
     estimated scf accuracy    <       0.00000299 Ry

     iteration # 11     ecut=    90.00 Ry     beta= 0.70
     Davidson diagonalization with overlap
     ethr =  2.17E-09,  avg # of iterations =  2.0

     total cpu time spent up to now is      116.0 secs

     total energy              =    -275.71530198 Ry
     estimated scf accuracy    <       0.00000032 Ry

     iteration # 12     ecut=    90.00 Ry     beta= 0.70
     Davidson diagonalization with overlap
     ethr =  4.94E-10,  avg # of iterations =  3.0

     total cpu time spent up to now is      126.4 secs

     End of self-consistent calculation

     Number of k-points >= 100: set verbosity='high' to print the bands.

     highest occupied level (ev):    -2.5679

!    total energy              =    -275.71530211 Ry
     estimated scf accuracy    <       0.00000006 Ry

     The total energy is the sum of the following terms:
     one-electron contribution =    -226.20891369 Ry
     hartree contribution      =     135.36794951 Ry
     xc contribution           =     -69.19110274 Ry
     ewald contribution        =    -115.68323519 Ry

     convergence has been achieved in  12 iterations

     Forces acting on atoms (cartesian axes, Ry/au):

     atom    1 type  2   force =     0.00000000    0.01841773   -0.17336637
     atom    2 type  2   force =     0.00000000   -0.01841794   -0.17336560
     atom    3 type  2   force =     0.00000000    0.01841778   -0.17336668
     atom    4 type  2   force =     0.00000000   -0.01841770   -0.17336517
     atom    5 type  2   force =     0.00000000    0.24747824   -0.18663182
     atom    6 type  2   force =     0.00000000   -0.24747846   -0.18663208
     atom    7 type  2   force =     0.00000000    0.24747906   -0.18663261
     atom    8 type  2   force =     0.00000000   -0.24747794   -0.18663152
     atom    9 type  1   force =     0.00000000    0.00054914    0.17871466
     atom   10 type  1   force =     0.00000000   -0.00054927    0.17871377
     atom   11 type  1   force =     0.00000000    0.00054915    0.17871466
     atom   12 type  1   force =     0.00000000   -0.00054925    0.17871372
     atom   13 type  1   force =     0.00000000   -0.02267716   -0.01173680
     atom   14 type  1   force =     0.00000000    0.02267682   -0.01173672
     atom   15 type  1   force =     0.00000000   -0.02267683   -0.01173667
     atom   16 type  1   force =     0.00000000    0.02267706   -0.01173681
     atom   17 type  1   force =     0.21741332   -0.12298575    0.09651043
     atom   18 type  1   force =    -0.21741274    0.12298528    0.09651012
     atom   19 type  1   force =     0.21741274    0.12298528    0.09651012
     atom   20 type  1   force =    -0.21741332   -0.12298575    0.09651043
     atom   21 type  1   force =     0.21741275   -0.12298534    0.09651003
     atom   22 type  1   force =    -0.21741324    0.12298559    0.09651043
     atom   23 type  1   force =     0.21741324    0.12298559    0.09651043
     atom   24 type  1   force =    -0.21741275   -0.12298534    0.09651003

     Total force =     1.099962     Total SCF correction =     0.000215


     Computing stress (Cartesian axis) and pressure

          total   stress  (Ry/bohr**3)                   (kbar)     P=      220.96
   0.00208141   0.00000000   0.00000000          306.19        0.00        0.00
   0.00000000   0.00084225  -0.00000000            0.00      123.90       -0.00
   0.00000000  -0.00000000   0.00158258            0.00       -0.00      232.81


     Writing all to output data dir ./iceIh/iceIh.save/ :
     XML data file, charge density, pseudopotentials, collected wavefunctions

     init_run     :      4.28s CPU      4.36s WALL (       1 calls)
     electrons    :    120.02s CPU    121.95s WALL (       1 calls)
     forces       :      0.49s CPU      0.50s WALL (       1 calls)
     stress       :      7.24s CPU      7.26s WALL (       1 calls)

     Called by init_run:
     wfcinit      :      3.84s CPU      3.88s WALL (       1 calls)
     potinit      :      0.03s CPU      0.04s WALL (       1 calls)
     hinit0       :      0.35s CPU      0.36s WALL (       1 calls)

     Called by electrons:
     c_bands      :    107.72s CPU    109.43s WALL (      12 calls)
     sum_band     :     12.09s CPU     12.20s WALL (      12 calls)
     v_of_rho     :      0.13s CPU      0.14s WALL (      13 calls)
     newd         :      0.02s CPU      0.03s WALL (      13 calls)
     mix_rho      :      0.03s CPU      0.03s WALL (      12 calls)

     Called by c_bands:
     init_us_2    :      1.39s CPU      1.43s WALL (    3105 calls)
     cegterg      :    104.47s CPU    105.56s WALL (    1380 calls)

     Called by *egterg:
     cdiaghg      :     10.03s CPU     10.08s WALL (    5635 calls)
     h_psi        :     81.62s CPU     82.62s WALL (    5750 calls)
     s_psi        :      3.10s CPU      3.12s WALL (    5750 calls)
     g_psi        :      0.28s CPU      0.28s WALL (    4255 calls)

     Called by h_psi:
     h_psi:calbec :      4.68s CPU      4.73s WALL (    5750 calls)
     vloc_psi     :     73.28s CPU     74.20s WALL (    5750 calls)
     add_vuspsi   :      3.22s CPU      3.25s WALL (    5750 calls)

     General routines
     calbec       :      6.17s CPU      6.23s WALL (    7705 calls)
     fft          :      0.40s CPU      0.40s WALL (     151 calls)
     ffts         :      0.01s CPU      0.01s WALL (      12 calls)
     fftw         :     76.03s CPU     76.94s WALL (  352338 calls)

     Parallel routines

     PWSCF        :   2m15.11s CPU   2m22.58s WALL


   This run was terminated on:  19:33:41  20Mar2026            

=------------------------------------------------------------------------------=
   JOB DONE.
=------------------------------------------------------------------------------=
