
     Program PWSCF v.7.3.1 starts on 31Mar2026 at 19:10:44 

     This program is part of the open-source Quantum ESPRESSO suite
     for quantum simulation of materials; please cite
         "P. Giannozzi et al., J. Phys.:Condens. Matter 21 395502 (2009);
         "P. Giannozzi et al., J. Phys.:Condens. Matter 29 465901 (2017);
         "P. Giannozzi et al., J. Chem. Phys. 152 154105 (2020);
          URL http://www.quantum-espresso.org", 
     in publications or presentations arising from this work. More details at
     http://www.quantum-espresso.org/quote

     Parallel version (MPI), running on   128 processors

     MPI processes distributed on     1 nodes
     495804 MiB available memory on the printing compute node when the environment starts

     Waiting for input...
     Reading input from standard input

     Current dimensions of program PWSCF are:
     Max number of different atomic species (ntypx) = 10
     Max number of k-points (npk) =  40000
     Max angular momentum in pseudopotentials (lmaxx) =  4
     Found identity + ( -0.5000 -0.5000  0.0000) symmetry
     This is a supercell, fractional translations are disabled

     K-points division:     npool     =       4
     R & G space division:  proc/nbgrp/npool/nimage =      32
     Subspace diagonalization in iterative solution of the eigenvalue problem:
     a serial algorithm will be used


     Parallelization info
     --------------------
     sticks:   dense  smooth     PW     G-vecs:    dense   smooth      PW
     Min          98      98     27                 5138     5138     751
     Max          99      99     28                 5143     5143     756
     Sum        3155    3155    875               164513   164513   24087

     Using Slab Decomposition



     bravais-lattice index     =            8
     lattice parameter (alat)  =       7.9716  a.u.
     unit-cell volume          =    1428.2014 (a.u.)^3
     number of atoms/cell      =           24
     number of atomic types    =            2
     number of electrons       =        64.00
     number of Kohn-Sham states=           32
     kinetic-energy cutoff     =      90.0000  Ry
     charge density cutoff     =     360.0000  Ry
     scf convergence threshold =      1.0E-07
     mixing beta               =       0.7000
     number of iterations used =            8  plain     mixing
     energy convergence thresh.=      1.0E-04
     force convergence thresh. =      1.0E-04
     Exchange-correlation=  SLA  PW   PBE  PBE
                           (   1   4   3   4   0   0   0)
     nstep                     =           50


     celldm(1)=   7.971571  celldm(2)=   1.732119  celldm(3)=   1.627721
     celldm(4)=   0.000000  celldm(5)=   0.000000  celldm(6)=   0.000000

     crystal axes: (cart. coord. in units of alat)
               a(1) = (   1.000000   0.000000   0.000000 )  
               a(2) = (   0.000000   1.732119   0.000000 )  
               a(3) = (   0.000000   0.000000   1.627721 )  

     reciprocal axes: (cart. coord. in units 2 pi/alat)
               b(1) = (  1.000000  0.000000  0.000000 )  
               b(2) = (  0.000000  0.577328  0.000000 )  
               b(3) = (  0.000000  0.000000  0.614356 )  


     PseudoPot. # 1 for H  read from file:
     ./H.pbe-van_ak.UPF
     MD5 check sum: 077eb6d537518a38cb46c6de387227b7
     Pseudo is Ultrasoft, Zval =  1.0
     Generated by new atomic code, or converted to UPF format
     Using radial grid of  615 points,  1 beta functions with: 
                l(1) =   0
     Q(r) pseudized with  8 coefficients,  rinner =    0.800

     PseudoPot. # 2 for O  read from file:
     ./O.pbe-van_ak.UPF
     MD5 check sum: 78c19812648e8988a0fe644b0f25305e
     Pseudo is Ultrasoft, Zval =  6.0
     Generated by new atomic code, or converted to UPF format
     Using radial grid of  737 points,  4 beta functions with: 
                l(1) =   0
                l(2) =   0
                l(3) =   1
                l(4) =   1
     Q(r) pseudized with  8 coefficients,  rinner =    0.800   0.800   0.800


     atomic species   valence    mass     pseudopotential
     H                 1.00     1.00800     H ( 1.00)
     O                 6.00    16.00000     O ( 1.00)

      2 Sym. Ops. (no inversion) found



   Cartesian axes

     site n.     atom                  positions (alat units)
         1        O      tau(   1) = (   0.0000000   1.1515127   0.1027092  )
         2        O      tau(   2) = (   0.0000000   0.5806063   0.9165697  )
         3        O      tau(   3) = (   0.5000000   0.2854532   0.1027092  )
         4        O      tau(   4) = (   0.5000000   1.4466659   0.9165697  )
         5        O      tau(   5) = (   0.5000000   1.4298643   1.5250118  )
         6        O      tau(   6) = (   0.5000000   0.3022548   0.7111513  )
         7        O      tau(   7) = (   0.0000000   0.5638048   1.5250118  )
         8        O      tau(   8) = (   0.0000000   1.1683143   0.7111513  )
         9        H      tau(   9) = (   0.0000000   1.1494343   0.3195216  )
        10        H      tau(  10) = (   0.0000000   0.5826848   1.1333822  )
        11        H      tau(  11) = (   0.5000000   0.2833747   0.3195216  )
        12        H      tau(  12) = (   0.5000000   1.4487443   1.1333822  )
        13        H      tau(  13) = (   0.0000000   0.9289355   0.0297873  )
        14        H      tau(  14) = (   0.0000000   0.8031836   0.8436478  )
        15        H      tau(  15) = (   0.5000000   0.0628759   0.0297873  )
        16        H      tau(  16) = (   0.5000000   1.6692431   0.8436478  )
        17        H      tau(  17) = (   0.6766000   1.3420459   1.5979337  )
        18        H      tau(  18) = (   0.3234000   0.3900732   0.7840732  )
        19        H      tau(  19) = (   0.6766000   0.3900732   0.7840732  )
        20        H      tau(  20) = (   0.3234000   1.3420459   1.5979337  )
        21        H      tau(  21) = (   0.1766000   0.4759863   1.5979337  )
        22        H      tau(  22) = (   0.8234000   1.2561327   0.7840732  )
        23        H      tau(  23) = (   0.1766000   1.2561327   0.7840732  )
        24        H      tau(  24) = (   0.8234000   0.4759863   1.5979337  )

     number of k points=   460

     Number of k-points >= 100: set verbosity='high' to print them.

     Dense  grid:   164513 G-vectors     FFT dimensions: (  50,  90,  80)

     Estimated max dynamical RAM per process >      43.41 MB

     Estimated total dynamical RAM >       5.31 GB

     Initial potential from superposition of free atoms

     starting charge      63.9998, renormalised to      64.0000
     Starting wfcs are   48 randomized atomic wfcs

     total cpu time spent up to now is        4.5 secs

     per-process dynamical memory:    51.5 Mb

     Self-consistent Calculation

     iteration #  1     ecut=    90.00 Ry     beta= 0.70
     Davidson diagonalization with overlap
     ethr =  1.00E-02,  avg # of iterations =  2.0

     total cpu time spent up to now is       13.0 secs

     total energy              =    -274.50979268 Ry
     estimated scf accuracy    <       3.15038343 Ry

     iteration #  2     ecut=    90.00 Ry     beta= 0.70
     Davidson diagonalization with overlap
     ethr =  4.92E-03,  avg # of iterations =  3.0

     total cpu time spent up to now is       23.6 secs

     total energy              =    -275.53760435 Ry
     estimated scf accuracy    <       1.26566843 Ry

     iteration #  3     ecut=    90.00 Ry     beta= 0.70
     Davidson diagonalization with overlap
     ethr =  1.98E-03,  avg # of iterations =  2.0

     total cpu time spent up to now is       31.5 secs

     total energy              =    -275.68257926 Ry
     estimated scf accuracy    <       0.05141904 Ry

     iteration #  4     ecut=    90.00 Ry     beta= 0.70
     Davidson diagonalization with overlap
     ethr =  8.03E-05,  avg # of iterations =  4.0

     total cpu time spent up to now is       42.9 secs

     total energy              =    -275.71671314 Ry
     estimated scf accuracy    <       0.05916766 Ry

     iteration #  5     ecut=    90.00 Ry     beta= 0.70
     Davidson diagonalization with overlap
     ethr =  8.03E-05,  avg # of iterations =  2.0

     total cpu time spent up to now is       50.9 secs

     total energy              =    -275.72041094 Ry
     estimated scf accuracy    <       0.00697250 Ry

     iteration #  6     ecut=    90.00 Ry     beta= 0.70
     Davidson diagonalization with overlap
     ethr =  1.09E-05,  avg # of iterations =  2.0

     total cpu time spent up to now is       59.3 secs

     total energy              =    -275.72182745 Ry
     estimated scf accuracy    <       0.00043793 Ry

     iteration #  7     ecut=    90.00 Ry     beta= 0.70
     Davidson diagonalization with overlap
     ethr =  6.84E-07,  avg # of iterations =  4.3

     total cpu time spent up to now is       71.4 secs

     total energy              =    -275.72214846 Ry
     estimated scf accuracy    <       0.00021329 Ry

     iteration #  8     ecut=    90.00 Ry     beta= 0.70
     Davidson diagonalization with overlap
     ethr =  3.33E-07,  avg # of iterations =  2.0

     total cpu time spent up to now is       79.2 secs

     total energy              =    -275.72216744 Ry
     estimated scf accuracy    <       0.00001462 Ry

     iteration #  9     ecut=    90.00 Ry     beta= 0.70
     Davidson diagonalization with overlap
     ethr =  2.28E-08,  avg # of iterations =  5.0

     total cpu time spent up to now is       91.3 secs

     total energy              =    -275.72217276 Ry
     estimated scf accuracy    <       0.00001671 Ry

     iteration # 10     ecut=    90.00 Ry     beta= 0.70
     Davidson diagonalization with overlap
     ethr =  2.28E-08,  avg # of iterations =  3.0

     total cpu time spent up to now is      101.3 secs

     total energy              =    -275.72217822 Ry
     estimated scf accuracy    <       0.00000151 Ry

     iteration # 11     ecut=    90.00 Ry     beta= 0.70
     Davidson diagonalization with overlap
     ethr =  2.35E-09,  avg # of iterations =  2.0

     total cpu time spent up to now is      108.8 secs

     total energy              =    -275.72217789 Ry
     estimated scf accuracy    <       0.00000115 Ry

     iteration # 12     ecut=    90.00 Ry     beta= 0.70
     Davidson diagonalization with overlap
     ethr =  1.79E-09,  avg # of iterations =  2.0

     total cpu time spent up to now is      116.0 secs

     total energy              =    -275.72217789 Ry
     estimated scf accuracy    <       0.00000016 Ry

     iteration # 13     ecut=    90.00 Ry     beta= 0.70
     Davidson diagonalization with overlap
     ethr =  2.56E-10,  avg # of iterations =  3.0

     total cpu time spent up to now is      125.8 secs

     End of self-consistent calculation

     Number of k-points >= 100: set verbosity='high' to print the bands.

     highest occupied level (ev):    -2.5833

!    total energy              =    -275.72217796 Ry
     estimated scf accuracy    <          8.2E-09 Ry

     The total energy is the sum of the following terms:
     one-electron contribution =    -226.44362322 Ry
     hartree contribution      =     135.45086993 Ry
     xc contribution           =     -69.16965077 Ry
     ewald contribution        =    -115.55977389 Ry

     convergence has been achieved in  13 iterations

     Forces acting on atoms (cartesian axes, Ry/au):

     atom    1 type  2   force =     0.00000000    0.01687741   -0.17128497
     atom    2 type  2   force =     0.00000000   -0.01687728   -0.17128437
     atom    3 type  2   force =     0.00000000    0.01687706   -0.17128531
     atom    4 type  2   force =     0.00000000   -0.01687717   -0.17128370
     atom    5 type  2   force =     0.00000000    0.24482031   -0.18451037
     atom    6 type  2   force =     0.00000000   -0.24482008   -0.18451045
     atom    7 type  2   force =     0.00000000    0.24482032   -0.18451073
     atom    8 type  2   force =     0.00000000   -0.24482010   -0.18451024
     atom    9 type  1   force =     0.00000000    0.00048868    0.17598371
     atom   10 type  1   force =     0.00000000   -0.00048871    0.17598275
     atom   11 type  1   force =     0.00000000    0.00048867    0.17598378
     atom   12 type  1   force =     0.00000000   -0.00048869    0.17598279
     atom   13 type  1   force =     0.00000000   -0.02108751   -0.01107277
     atom   14 type  1   force =     0.00000000    0.02108745   -0.01107282
     atom   15 type  1   force =     0.00000000   -0.02108743   -0.01107278
     atom   16 type  1   force =     0.00000000    0.02108761   -0.01107284
     atom   17 type  1   force =     0.21463013   -0.12169240    0.09544236
     atom   18 type  1   force =    -0.21462991    0.12169222    0.09544224
     atom   19 type  1   force =     0.21462991    0.12169222    0.09544224
     atom   20 type  1   force =    -0.21463013   -0.12169240    0.09544236
     atom   21 type  1   force =     0.21463011   -0.12169234    0.09544227
     atom   22 type  1   force =    -0.21462992    0.12169226    0.09544230
     atom   23 type  1   force =     0.21462992    0.12169226    0.09544230
     atom   24 type  1   force =    -0.21463011   -0.12169234    0.09544227

     Total force =     1.086481     Total SCF correction =     0.000060


     Computing stress (Cartesian axis) and pressure

          total   stress  (Ry/bohr**3)                   (kbar)     P=      216.55
   0.00204565   0.00000000   0.00000000          300.93        0.00        0.00
   0.00000000   0.00081835  -0.00000000            0.00      120.38       -0.00
   0.00000000  -0.00000000   0.00155216            0.00       -0.00      228.33


     BFGS Geometry Optimization
     Energy error            =      0.0E+00 Ry
     Gradient error          =      2.4E-01 Ry/Bohr

     number of scf cycles    =   1
     number of bfgs steps    =   0

     energy             new  =    -275.7221779571 Ry

     new trust radius        =       0.3065635298 bohr
     new conv_thr            =       0.0000001000 Ry


ATOMIC_POSITIONS (crystal)
O                0.0000000000        0.6660223058        0.0498993517
O                0.0000000000        0.3339777035        0.5498993748
O                0.5000000000        0.1660222805        0.0498993251
O                0.5000000000        0.8339777117        0.5498994265
O                0.5000000000        0.8432307073        0.9226801083
O                0.5000000000        0.1567693098        0.4226800723
O                0.0000000000        0.3432307077        0.9226800808
O                0.0000000000        0.6567693078        0.4226800882
H                0.0000000000        0.6636354197        0.2098627756
H                0.0000000000        0.3363645779        0.7098627315
H                0.5000000000        0.1636354191        0.2098627809
H                0.5000000000        0.8363645794        0.7098627350
H                0.0000000000        0.5347727770        0.0174466405
H                0.0000000000        0.4652272186        0.5174466331
H                0.5000000000        0.0347727827        0.0174466398
H                0.5000000000        0.9652272307        0.5174466315
H                0.7035244245        0.7659866369        0.9890555890
H                0.2964756023        0.2340133496        0.4890555795
H                0.7035243977        0.2340133496        0.4890555795
H                0.2964755755        0.7659866369        0.9890555890
H                0.2035244223        0.2659866415        0.9890555824
H                0.7964756015        0.7340133524        0.4890555843
H                0.2035243985        0.7340133524        0.4890555843
H                0.7964755777        0.2659866415        0.9890555824



     Writing config-only to output data dir ./iceIh/iceIh.save/ :
     XML data file
     NEW-OLD atomic charge density approx. for the potential

     total cpu time spent up to now is      133.8 secs

     per-process dynamical memory:    55.7 Mb

     Self-consistent Calculation

     iteration #  1     ecut=    90.00 Ry     beta= 0.70
     Davidson diagonalization with overlap
     ethr =  1.00E-06,  avg # of iterations = 12.0

     total cpu time spent up to now is      164.5 secs

     total energy              =    -275.82349503 Ry
     estimated scf accuracy    <       0.25839535 Ry

     iteration #  2     ecut=    90.00 Ry     beta= 0.70
     Davidson diagonalization with overlap
     ethr =  4.04E-04,  avg # of iterations =  2.5

     total cpu time spent up to now is      174.1 secs

     total energy              =    -275.88739998 Ry
     estimated scf accuracy    <       0.04960448 Ry

     iteration #  3     ecut=    90.00 Ry     beta= 0.70
     Davidson diagonalization with overlap
     ethr =  7.75E-05,  avg # of iterations =  2.4

     total cpu time spent up to now is      183.1 secs

     total energy              =    -275.89558259 Ry
     estimated scf accuracy    <       0.00198770 Ry

     iteration #  4     ecut=    90.00 Ry     beta= 0.70
     Davidson diagonalization with overlap
     ethr =  3.11E-06,  avg # of iterations =  2.8

     total cpu time spent up to now is      192.6 secs

     total energy              =    -275.89613594 Ry
     estimated scf accuracy    <       0.00038920 Ry

     iteration #  5     ecut=    90.00 Ry     beta= 0.70
     Davidson diagonalization with overlap
     ethr =  6.08E-07,  avg # of iterations =  2.1

     total cpu time spent up to now is      201.1 secs

     total energy              =    -275.89619377 Ry
     estimated scf accuracy    <       0.00006178 Ry

     iteration #  6     ecut=    90.00 Ry     beta= 0.70
     Davidson diagonalization with overlap
     ethr =  9.65E-08,  avg # of iterations =  3.1

     total cpu time spent up to now is      210.8 secs

     total energy              =    -275.89620708 Ry
     estimated scf accuracy    <       0.00001658 Ry

     iteration #  7     ecut=    90.00 Ry     beta= 0.70
     Davidson diagonalization with overlap
     ethr =  2.59E-08,  avg # of iterations =  3.0

     total cpu time spent up to now is      220.6 secs

     total energy              =    -275.89621211 Ry
     estimated scf accuracy    <       0.00000158 Ry

     iteration #  8     ecut=    90.00 Ry     beta= 0.70
     Davidson diagonalization with overlap
     ethr =  2.48E-09,  avg # of iterations =  2.0

     total cpu time spent up to now is      227.9 secs

     total energy              =    -275.89621195 Ry
     estimated scf accuracy    <       0.00000053 Ry

     iteration #  9     ecut=    90.00 Ry     beta= 0.70
     Davidson diagonalization with overlap
     ethr =  8.25E-10,  avg # of iterations =  2.3

     total cpu time spent up to now is      237.2 secs

     End of self-consistent calculation

     Number of k-points >= 100: set verbosity='high' to print the bands.

     highest occupied level (ev):    -2.1018

!    total energy              =    -275.89621209 Ry
     estimated scf accuracy    <       0.00000001 Ry

     The total energy is the sum of the following terms:
     one-electron contribution =    -209.72395673 Ry
     hartree contribution      =     127.97283034 Ry
     xc contribution           =     -67.49823352 Ry
     ewald contribution        =    -126.64685219 Ry

     convergence has been achieved in   9 iterations

     Forces acting on atoms (cartesian axes, Ry/au):

     atom    1 type  2   force =     0.00000000    0.07011307    0.08087555
     atom    2 type  2   force =     0.00000000   -0.07011317    0.08087517
     atom    3 type  2   force =     0.00000000    0.07011361    0.08087578
     atom    4 type  2   force =     0.00000000   -0.07011300    0.08087486
     atom    5 type  2   force =     0.00000000   -0.09769390    0.07697570
     atom    6 type  2   force =     0.00000000    0.09769371    0.07697561
     atom    7 type  2   force =     0.00000000   -0.09769383    0.07697573
     atom    8 type  2   force =     0.00000000    0.09769377    0.07697563
     atom    9 type  1   force =     0.00000000    0.01078865   -0.02972597
     atom   10 type  1   force =     0.00000000   -0.01078861   -0.02972565
     atom   11 type  1   force =     0.00000000    0.01078863   -0.02972605
     atom   12 type  1   force =     0.00000000   -0.01078858   -0.02972551
     atom   13 type  1   force =     0.00000000   -0.04972894   -0.03686182
     atom   14 type  1   force =     0.00000000    0.04972897   -0.03686180
     atom   15 type  1   force =     0.00000000   -0.04972935   -0.03686191
     atom   16 type  1   force =     0.00000000    0.04972880   -0.03686172
     atom   17 type  1   force =    -0.04190574    0.03456100   -0.04563170
     atom   18 type  1   force =     0.04190565   -0.03456093   -0.04563170
     atom   19 type  1   force =    -0.04190565   -0.03456093   -0.04563170
     atom   20 type  1   force =     0.04190574    0.03456100   -0.04563170
     atom   21 type  1   force =    -0.04190571    0.03456097   -0.04563173
     atom   22 type  1   force =     0.04190568   -0.03456095   -0.04563167
     atom   23 type  1   force =    -0.04190568   -0.03456095   -0.04563167
     atom   24 type  1   force =     0.04190571    0.03456097   -0.04563173

     Total force =     0.409015     Total SCF correction =     0.000332


     Computing stress (Cartesian axis) and pressure

          total   stress  (Ry/bohr**3)                   (kbar)     P=      -29.86
  -0.00050893   0.00000000   0.00000000          -74.87        0.00        0.00
   0.00000000   0.00025569   0.00000000            0.00       37.61        0.00
   0.00000000   0.00000000  -0.00035561            0.00        0.00      -52.31

     Energy error            =      1.7E-01 Ry
     Gradient error          =      9.8E-02 Ry/Bohr

     number of scf cycles    =   2
     number of bfgs steps    =   1

     energy             old  =    -275.7221779571 Ry
     energy             new  =    -275.8962120942 Ry

     CASE: energy            _new < energy            _old

     new trust radius        =       0.0864859094 bohr
     new conv_thr            =       0.0000001000 Ry


ATOMIC_POSITIONS (crystal)
O                0.0000000000        0.6699523052        0.0542962058
O                0.0000000000        0.3300476985        0.5542962080
O                0.5000000000        0.1699523095        0.0542961923
O                0.5000000000        0.8300477166        0.5542962431
O                0.5000000000        0.8383194168        0.9268168332
O                0.5000000000        0.1616805903        0.4268167916
O                0.0000000000        0.3383194208        0.9268168065
O                0.0000000000        0.6616805916        0.4268168092
H                0.0000000000        0.6642357119        0.2084998093
H                0.0000000000        0.3357642878        0.7084997815
H                0.5000000000        0.1642357098        0.2084998097
H                0.5000000000        0.8357642915        0.7084997935
H                0.0000000000        0.5319661699        0.0152430044
H                0.0000000000        0.4680338275        0.5152429985
H                0.5000000000        0.0319661526        0.0152429987
H                0.5000000000        0.9680338301        0.5152430010
H                0.7002749235        0.7676502690        0.9865721031
H                0.2997250952        0.2323497210        0.4865720930
H                0.7002749048        0.2323497210        0.4865720930
H                0.2997250765        0.7676502690        0.9865721031
H                0.2002749237        0.2676502720        0.9865720941
H                0.7997250973        0.7323497227        0.4865720997
H                0.2002749027        0.7323497227        0.4865720997
H                0.7997250763        0.2676502720        0.9865720941



     Writing config-only to output data dir ./iceIh/iceIh.save/ :
     XML data file
     NEW-OLD atomic charge density approx. for the potential

     total cpu time spent up to now is      245.3 secs

     per-process dynamical memory:    54.1 Mb

     Self-consistent Calculation

     iteration #  1     ecut=    90.00 Ry     beta= 0.70
     Davidson diagonalization with overlap
     ethr =  1.00E-06,  avg # of iterations =  9.4

     total cpu time spent up to now is      268.8 secs

     total energy              =    -275.97216313 Ry
     estimated scf accuracy    <       0.01455072 Ry

     iteration #  2     ecut=    90.00 Ry     beta= 0.70
     Davidson diagonalization with overlap
     ethr =  2.27E-05,  avg # of iterations =  2.2

     total cpu time spent up to now is      277.7 secs

     total energy              =    -275.97519871 Ry
     estimated scf accuracy    <       0.00194141 Ry

     iteration #  3     ecut=    90.00 Ry     beta= 0.70
     Davidson diagonalization with overlap
     ethr =  3.03E-06,  avg # of iterations =  2.3

     total cpu time spent up to now is      286.9 secs

     total energy              =    -275.97564176 Ry
     estimated scf accuracy    <       0.00019810 Ry

     iteration #  4     ecut=    90.00 Ry     beta= 0.70
     Davidson diagonalization with overlap
     ethr =  3.10E-07,  avg # of iterations =  2.2

     total cpu time spent up to now is      295.3 secs

     total energy              =    -275.97567638 Ry
     estimated scf accuracy    <       0.00001282 Ry

     iteration #  5     ecut=    90.00 Ry     beta= 0.70
     Davidson diagonalization with overlap
     ethr =  2.00E-08,  avg # of iterations =  2.7

     total cpu time spent up to now is      304.8 secs

     total energy              =    -275.97568006 Ry
     estimated scf accuracy    <       0.00000164 Ry

     iteration #  6     ecut=    90.00 Ry     beta= 0.70
     Davidson diagonalization with overlap
     ethr =  2.56E-09,  avg # of iterations =  2.0

     total cpu time spent up to now is      312.9 secs

     total energy              =    -275.97568022 Ry
     estimated scf accuracy    <       0.00000014 Ry

     iteration #  7     ecut=    90.00 Ry     beta= 0.70
     Davidson diagonalization with overlap
     ethr =  2.16E-10,  avg # of iterations =  3.8

     total cpu time spent up to now is      324.0 secs

     End of self-consistent calculation

     Number of k-points >= 100: set verbosity='high' to print the bands.

     highest occupied level (ev):    -2.2134

!    total energy              =    -275.97568023 Ry
     estimated scf accuracy    <       0.00000009 Ry

     The total energy is the sum of the following terms:
     one-electron contribution =    -211.04398985 Ry
     hartree contribution      =     128.57284205 Ry
     xc contribution           =     -67.63559476 Ry
     ewald contribution        =    -125.86893766 Ry

     convergence has been achieved in   7 iterations

     Forces acting on atoms (cartesian axes, Ry/au):

     atom    1 type  2   force =     0.00000000   -0.02118576    0.03456919
     atom    2 type  2   force =     0.00000000    0.02118574    0.03456898
     atom    3 type  2   force =     0.00000000   -0.02118588    0.03456923
     atom    4 type  2   force =     0.00000000    0.02118564    0.03456882
     atom    5 type  2   force =     0.00000000   -0.04311551    0.04915356
     atom    6 type  2   force =     0.00000000    0.04311548    0.04915358
     atom    7 type  2   force =     0.00000000   -0.04311554    0.04915359
     atom    8 type  2   force =     0.00000000    0.04311548    0.04915355
     atom    9 type  1   force =     0.00000000    0.01182863   -0.02235410
     atom   10 type  1   force =     0.00000000   -0.01182861   -0.02235389
     atom   11 type  1   force =     0.00000000    0.01182865   -0.02235416
     atom   12 type  1   force =     0.00000000   -0.01182857   -0.02235381
     atom   13 type  1   force =     0.00000000    0.01945515   -0.01357674
     atom   14 type  1   force =     0.00000000   -0.01945518   -0.01357672
     atom   15 type  1   force =     0.00000000    0.01945527   -0.01357672
     atom   16 type  1   force =     0.00000000   -0.01945512   -0.01357669
     atom   17 type  1   force =    -0.02685225    0.01812094   -0.02389594
     atom   18 type  1   force =     0.02685221   -0.01812092   -0.02389597
     atom   19 type  1   force =    -0.02685221   -0.01812092   -0.02389597
     atom   20 type  1   force =     0.02685225    0.01812094   -0.02389594
     atom   21 type  1   force =    -0.02685225    0.01812095   -0.02389597
     atom   22 type  1   force =     0.02685222   -0.01812091   -0.02389595
     atom   23 type  1   force =    -0.02685222   -0.01812091   -0.02389595
     atom   24 type  1   force =     0.02685225    0.01812095   -0.02389597

     Total force =     0.203590     Total SCF correction =     0.000342


     Computing stress (Cartesian axis) and pressure

          total   stress  (Ry/bohr**3)                   (kbar)     P=      -20.06
  -0.00021450   0.00000000   0.00000000          -31.55        0.00        0.00
   0.00000000  -0.00009905   0.00000000            0.00      -14.57        0.00
   0.00000000   0.00000000  -0.00009546            0.00        0.00      -14.04

     Energy error            =      7.9E-02 Ry
     Gradient error          =      4.9E-02 Ry/Bohr

     number of scf cycles    =   3
     number of bfgs steps    =   2

     energy             old  =    -275.8962120942 Ry
     energy             new  =    -275.9756802304 Ry

     CASE: energy            _new < energy            _old

     new trust radius        =       0.1122765563 bohr
     new conv_thr            =       0.0000001000 Ry


ATOMIC_POSITIONS (crystal)
O                0.0000000000        0.6681414613        0.0589995844
O                0.0000000000        0.3318585392        0.5589995585
O                0.5000000000        0.1681414566        0.0589995772
O                0.5000000000        0.8318585475        0.5589995719
O                0.5000000000        0.8328398843        0.9332100742
O                0.5000000000        0.1671601183        0.4332100336
O                0.0000000000        0.3328398858        0.9332100509
O                0.0000000000        0.6671601204        0.4332100488
H                0.0000000000        0.6656342599        0.2056625864
H                0.0000000000        0.3343657423        0.7056625858
H                0.5000000000        0.1656342596        0.2056625793
H                0.5000000000        0.8343657511        0.7056626087
H                0.0000000000        0.5337404876        0.0133310147
H                0.0000000000        0.4662595069        0.5133310119
H                0.5000000000        0.0337404806        0.0133310111
H                0.5000000000        0.9662595148        0.5133310183
H                0.6946462470        0.7698979976        0.9833984015
H                0.3053537632        0.2301019953        0.4833983875
H                0.6946462368        0.2301019953        0.4833983875
H                0.3053537530        0.7698979976        0.9833984015
H                0.1946462472        0.2698980013        0.9833983885
H                0.8053537666        0.7301019977        0.4833983977
H                0.1946462334        0.7301019977        0.4833983977
H                0.8053537528        0.2698980013        0.9833983885



     Writing config-only to output data dir ./iceIh/iceIh.save/ :
     XML data file
     NEW-OLD atomic charge density approx. for the potential

     total cpu time spent up to now is      331.9 secs

     per-process dynamical memory:    56.7 Mb

     Self-consistent Calculation

     iteration #  1     ecut=    90.00 Ry     beta= 0.70
     Davidson diagonalization with overlap
     ethr =  1.00E-06,  avg # of iterations = 10.0

     total cpu time spent up to now is      356.7 secs

     total energy              =    -275.99303121 Ry
     estimated scf accuracy    <       0.02417911 Ry

     iteration #  2     ecut=    90.00 Ry     beta= 0.70
     Davidson diagonalization with overlap
     ethr =  3.78E-05,  avg # of iterations =  2.9

     total cpu time spent up to now is      366.3 secs

     total energy              =    -275.99926004 Ry
     estimated scf accuracy    <       0.00470427 Ry

     iteration #  3     ecut=    90.00 Ry     beta= 0.70
     Davidson diagonalization with overlap
     ethr =  7.35E-06,  avg # of iterations =  2.0

     total cpu time spent up to now is      374.2 secs

     total energy              =    -275.99990045 Ry
     estimated scf accuracy    <       0.00017741 Ry

     iteration #  4     ecut=    90.00 Ry     beta= 0.70
     Davidson diagonalization with overlap
     ethr =  2.77E-07,  avg # of iterations =  3.0

     total cpu time spent up to now is      384.7 secs

     total energy              =    -275.99997569 Ry
     estimated scf accuracy    <       0.00007136 Ry

     iteration #  5     ecut=    90.00 Ry     beta= 0.70
     Davidson diagonalization with overlap
     ethr =  1.12E-07,  avg # of iterations =  2.4

     total cpu time spent up to now is      393.5 secs

     total energy              =    -275.99998672 Ry
     estimated scf accuracy    <       0.00001009 Ry

     iteration #  6     ecut=    90.00 Ry     beta= 0.70
     Davidson diagonalization with overlap
     ethr =  1.58E-08,  avg # of iterations =  3.0

     total cpu time spent up to now is      403.8 secs

     total energy              =    -275.99998841 Ry
     estimated scf accuracy    <       0.00000521 Ry

     iteration #  7     ecut=    90.00 Ry     beta= 0.70
     Davidson diagonalization with overlap
     ethr =  8.15E-09,  avg # of iterations =  2.0

     total cpu time spent up to now is      412.8 secs

     total energy              =    -275.99998995 Ry
     estimated scf accuracy    <       0.00000016 Ry

     iteration #  8     ecut=    90.00 Ry     beta= 0.70
     Davidson diagonalization with overlap
     ethr =  2.54E-10,  avg # of iterations =  3.0

     total cpu time spent up to now is      421.6 secs

     total energy              =    -275.99998990 Ry
     estimated scf accuracy    <       0.00000016 Ry

     iteration #  9     ecut=    90.00 Ry     beta= 0.70
     Davidson diagonalization with overlap
     ethr =  2.51E-10,  avg # of iterations =  2.0

     total cpu time spent up to now is      430.4 secs

     End of self-consistent calculation

     Number of k-points >= 100: set verbosity='high' to print the bands.

     highest occupied level (ev):    -2.3659

!    total energy              =    -275.99998993 Ry
     estimated scf accuracy    <          1.0E-09 Ry

     The total energy is the sum of the following terms:
     one-electron contribution =    -215.67403488 Ry
     hartree contribution      =     130.65442577 Ry
     xc contribution           =     -68.09738534 Ry
     ewald contribution        =    -122.88299548 Ry

     convergence has been achieved in   9 iterations

     Forces acting on atoms (cartesian axes, Ry/au):

     atom    1 type  2   force =     0.00000000   -0.01563031   -0.01905324
     atom    2 type  2   force =     0.00000000    0.01563023   -0.01905291
     atom    3 type  2   force =     0.00000000   -0.01563029   -0.01905325
     atom    4 type  2   force =     0.00000000    0.01563024   -0.01905282
     atom    5 type  2   force =     0.00000000    0.03178200   -0.01378331
     atom    6 type  2   force =     0.00000000   -0.03178199   -0.01378322
     atom    7 type  2   force =     0.00000000    0.03178199   -0.01378327
     atom    8 type  2   force =     0.00000000   -0.03178202   -0.01378326
     atom    9 type  1   force =     0.00000000    0.00150677    0.01257822
     atom   10 type  1   force =     0.00000000   -0.00150678    0.01257799
     atom   11 type  1   force =     0.00000000    0.00150677    0.01257822
     atom   12 type  1   force =     0.00000000   -0.00150678    0.01257790
     atom   13 type  1   force =     0.00000000    0.01422776    0.00131038
     atom   14 type  1   force =     0.00000000   -0.01422768    0.00131033
     atom   15 type  1   force =     0.00000000    0.01422776    0.00131039
     atom   16 type  1   force =     0.00000000   -0.01422770    0.00131034
     atom   17 type  1   force =     0.01227454   -0.01613000    0.00947395
     atom   18 type  1   force =    -0.01227455    0.01612999    0.00947393
     atom   19 type  1   force =     0.01227455    0.01612999    0.00947393
     atom   20 type  1   force =    -0.01227454   -0.01613000    0.00947395
     atom   21 type  1   force =     0.01227452   -0.01612999    0.00947394
     atom   22 type  1   force =    -0.01227457    0.01613001    0.00947394
     atom   23 type  1   force =     0.01227457    0.01613001    0.00947394
     atom   24 type  1   force =    -0.01227452   -0.01612999    0.00947394

     Total force =     0.112663     Total SCF correction =     0.000042


     Computing stress (Cartesian axis) and pressure

          total   stress  (Ry/bohr**3)                   (kbar)     P=       38.30
   0.00031281   0.00000000   0.00000000           46.02        0.00        0.00
   0.00000000   0.00014512  -0.00000000            0.00       21.35       -0.00
   0.00000000  -0.00000000   0.00032320            0.00       -0.00       47.55

     Energy error            =      2.4E-02 Ry
     Gradient error          =      3.2E-02 Ry/Bohr

     number of scf cycles    =   4
     number of bfgs steps    =   3

     energy             old  =    -275.9756802304 Ry
     energy             new  =    -275.9999899337 Ry

     CASE: energy            _new < energy            _old

     new trust radius        =       0.0335657439 bohr
     new conv_thr            =       0.0000001000 Ry


ATOMIC_POSITIONS (crystal)
O                0.0000000000        0.6678373788        0.0575925996
O                0.0000000000        0.3321626177        0.5575925943
O                0.5000000000        0.1678373783        0.0575925917
O                0.5000000000        0.8321626283        0.5575926147
O                0.5000000000        0.8348942538        0.9318270860
O                0.5000000000        0.1651057496        0.4318270500
O                0.0000000000        0.3348942551        0.9318270649
O                0.0000000000        0.6651057501        0.4318270637
H                0.0000000000        0.6655371651        0.2066148393
H                0.0000000000        0.3344628362        0.7066148236
H                0.5000000000        0.1655371643        0.2066148330
H                0.5000000000        0.8344628444        0.7066148404
H                0.0000000000        0.5340455579        0.0135636126
H                0.0000000000        0.4659544409        0.5135636067
H                0.5000000000        0.0340455483        0.0135636089
H                0.5000000000        0.9659544467        0.5135636131
H                0.6962340021        0.7688856766        0.9842009609
H                0.3037660085        0.2311143161        0.4842009462
H                0.6962339915        0.2311143161        0.4842009462
H                0.3037659979        0.7688856766        0.9842009609
H                0.1962340008        0.2688856805        0.9842009479
H                0.8037660097        0.7311143191        0.4842009567
H                0.1962339903        0.7311143191        0.4842009567
H                0.8037659992        0.2688856805        0.9842009479



     Writing config-only to output data dir ./iceIh/iceIh.save/ :
     XML data file
     NEW-OLD atomic charge density approx. for the potential

     total cpu time spent up to now is      438.4 secs

     per-process dynamical memory:    56.7 Mb

     Self-consistent Calculation

     iteration #  1     ecut=    90.00 Ry     beta= 0.70
     Davidson diagonalization with overlap
     ethr =  1.00E-06,  avg # of iterations =  5.1

     total cpu time spent up to now is      454.8 secs

     total energy              =    -276.00426868 Ry
     estimated scf accuracy    <       0.00224956 Ry

     iteration #  2     ecut=    90.00 Ry     beta= 0.70
     Davidson diagonalization with overlap
     ethr =  3.51E-06,  avg # of iterations =  3.0

     total cpu time spent up to now is      464.5 secs

     total energy              =    -276.00480001 Ry
     estimated scf accuracy    <       0.00049442 Ry

     iteration #  3     ecut=    90.00 Ry     beta= 0.70
     Davidson diagonalization with overlap
     ethr =  7.73E-07,  avg # of iterations =  2.6

     total cpu time spent up to now is      473.5 secs

     total energy              =    -276.00489774 Ry
     estimated scf accuracy    <       0.00001683 Ry

     iteration #  4     ecut=    90.00 Ry     beta= 0.70
     Davidson diagonalization with overlap
     ethr =  2.63E-08,  avg # of iterations =  2.9

     total cpu time spent up to now is      483.3 secs

     total energy              =    -276.00490216 Ry
     estimated scf accuracy    <       0.00000409 Ry

     iteration #  5     ecut=    90.00 Ry     beta= 0.70
     Davidson diagonalization with overlap
     ethr =  6.39E-09,  avg # of iterations =  2.0

     total cpu time spent up to now is      491.9 secs

     total energy              =    -276.00490281 Ry
     estimated scf accuracy    <       0.00000035 Ry

     iteration #  6     ecut=    90.00 Ry     beta= 0.70
     Davidson diagonalization with overlap
     ethr =  5.51E-10,  avg # of iterations =  3.5

     total cpu time spent up to now is      502.2 secs

     total energy              =    -276.00490288 Ry
     estimated scf accuracy    <       0.00000014 Ry

     iteration #  7     ecut=    90.00 Ry     beta= 0.70
     Davidson diagonalization with overlap
     ethr =  2.14E-10,  avg # of iterations =  3.0

     total cpu time spent up to now is      512.1 secs

     End of self-consistent calculation

     Number of k-points >= 100: set verbosity='high' to print the bands.

     highest occupied level (ev):    -2.3458

!    total energy              =    -276.00490292 Ry
     estimated scf accuracy    <       0.00000001 Ry

     The total energy is the sum of the following terms:
     one-electron contribution =    -214.44264704 Ry
     hartree contribution      =     130.10086897 Ry
     xc contribution           =     -67.97377669 Ry
     ewald contribution        =    -123.68934817 Ry

     convergence has been achieved in   7 iterations

     Forces acting on atoms (cartesian axes, Ry/au):

     atom    1 type  2   force =     0.00000000   -0.00284845    0.00335362
     atom    2 type  2   force =     0.00000000    0.00284848    0.00335353
     atom    3 type  2   force =     0.00000000   -0.00284849    0.00335361
     atom    4 type  2   force =     0.00000000    0.00284845    0.00335349
     atom    5 type  2   force =     0.00000000    0.00106914    0.00596243
     atom    6 type  2   force =     0.00000000   -0.00106916    0.00596247
     atom    7 type  2   force =     0.00000000    0.00106914    0.00596245
     atom    8 type  2   force =     0.00000000   -0.00106916    0.00596245
     atom    9 type  1   force =     0.00000000    0.00248091   -0.00181904
     atom   10 type  1   force =     0.00000000   -0.00248091   -0.00181895
     atom   11 type  1   force =     0.00000000    0.00248091   -0.00181905
     atom   12 type  1   force =     0.00000000   -0.00248090   -0.00181894
     atom   13 type  1   force =     0.00000000    0.00449166   -0.00405650
     atom   14 type  1   force =     0.00000000   -0.00449170   -0.00405649
     atom   15 type  1   force =     0.00000000    0.00449172   -0.00405648
     atom   16 type  1   force =     0.00000000   -0.00449169   -0.00405648
     atom   17 type  1   force =    -0.00436339   -0.00262140   -0.00172026
     atom   18 type  1   force =     0.00436336    0.00262141   -0.00172027
     atom   19 type  1   force =    -0.00436336    0.00262141   -0.00172027
     atom   20 type  1   force =     0.00436339   -0.00262140   -0.00172026
     atom   21 type  1   force =    -0.00436339   -0.00262140   -0.00172027
     atom   22 type  1   force =     0.00436336    0.00262141   -0.00172026
     atom   23 type  1   force =    -0.00436336    0.00262141   -0.00172026
     atom   24 type  1   force =     0.00436339   -0.00262140   -0.00172027

     Total force =     0.025289     Total SCF correction =     0.000107


     Computing stress (Cartesian axis) and pressure

          total   stress  (Ry/bohr**3)                   (kbar)     P=       21.34
   0.00011360   0.00000000   0.00000000           16.71        0.00        0.00
   0.00000000   0.00014534   0.00000000            0.00       21.38        0.00
   0.00000000   0.00000000   0.00017625            0.00        0.00       25.93

     Energy error            =      4.9E-03 Ry
     Gradient error          =      6.0E-03 Ry/Bohr

     number of scf cycles    =   5
     number of bfgs steps    =   4

     energy             old  =    -275.9999899337 Ry
     energy             new  =    -276.0049029223 Ry

     CASE: energy            _new < energy            _old

     new trust radius        =       0.0064360707 bohr
     new conv_thr            =       0.0000000491 Ry


ATOMIC_POSITIONS (crystal)
O                0.0000000000        0.6676360736        0.0578510014
O                0.0000000000        0.3323639244        0.5578509914
O                0.5000000000        0.1676360711        0.0578509930
O                0.5000000000        0.8323639336        0.5578510090
O                0.5000000000        0.8349993765        0.9323103213
O                0.5000000000        0.1650006251        0.4323102881
O                0.0000000000        0.3349993777        0.9323103016
O                0.0000000000        0.6650006262        0.4323103008
H                0.0000000000        0.6657349614        0.2065069172
H                0.0000000000        0.3342650397        0.7065069071
H                0.5000000000        0.1657349609        0.2065069098
H                0.5000000000        0.8342650487        0.7065069245
H                0.0000000000        0.5343771166        0.0132191088
H                0.0000000000        0.4656228801        0.5132191033
H                0.5000000000        0.0343771103        0.0132191063
H                0.5000000000        0.9656228863        0.5132191105
H                0.6957219422        0.7686689471        0.9840563549
H                0.3042780651        0.2313310465        0.4840563393
H                0.6957219349        0.2313310465        0.4840563393
H                0.3042780578        0.7686689471        0.9840563549
H                0.1957219406        0.2686689508        0.9840563413
H                0.8042780661        0.7313310495        0.4840563505
H                0.1957219339        0.7313310495        0.4840563505
H                0.8042780594        0.2686689508        0.9840563413



     Writing config-only to output data dir ./iceIh/iceIh.save/ :
     XML data file
     NEW-OLD atomic charge density approx. for the potential

     total cpu time spent up to now is      520.1 secs

     per-process dynamical memory:    56.7 Mb

     Self-consistent Calculation

     iteration #  1     ecut=    90.00 Ry     beta= 0.70
     Davidson diagonalization with overlap
     ethr =  1.00E-06,  avg # of iterations =  3.0

     Threshold (ethr) on eigenvalues was too large:
     Diagonalizing with lowered threshold

     Davidson diagonalization with overlap
     ethr =  9.06E-08,  avg # of iterations =  2.0

     total cpu time spent up to now is      538.5 secs

     total energy              =    -276.00539506 Ry
     estimated scf accuracy    <       0.00006151 Ry

     iteration #  2     ecut=    90.00 Ry     beta= 0.70
     Davidson diagonalization with overlap
     ethr =  9.61E-08,  avg # of iterations =  2.0

     total cpu time spent up to now is      547.4 secs

     total energy              =    -276.00540942 Ry
     estimated scf accuracy    <       0.00000866 Ry

     iteration #  3     ecut=    90.00 Ry     beta= 0.70
     Davidson diagonalization with overlap
     ethr =  1.35E-08,  avg # of iterations =  2.0

     total cpu time spent up to now is      555.7 secs

     total energy              =    -276.00541075 Ry
     estimated scf accuracy    <       0.00000028 Ry

     iteration #  4     ecut=    90.00 Ry     beta= 0.70
     Davidson diagonalization with overlap
     ethr =  4.44E-10,  avg # of iterations =  3.0

     total cpu time spent up to now is      565.6 secs

     total energy              =    -276.00541082 Ry
     estimated scf accuracy    <       0.00000009 Ry

     iteration #  5     ecut=    90.00 Ry     beta= 0.70
     Davidson diagonalization with overlap
     ethr =  1.48E-10,  avg # of iterations =  3.0

     total cpu time spent up to now is      575.5 secs

     End of self-consistent calculation

     Number of k-points >= 100: set verbosity='high' to print the bands.

     highest occupied level (ev):    -2.3547

!    total energy              =    -276.00541085 Ry
     estimated scf accuracy    <       0.00000002 Ry

     The total energy is the sum of the following terms:
     one-electron contribution =    -214.66792815 Ry
     hartree contribution      =     130.20188764 Ry
     xc contribution           =     -67.99604216 Ry
     ewald contribution        =    -123.54332818 Ry

     convergence has been achieved in   5 iterations

     Forces acting on atoms (cartesian axes, Ry/au):

     atom    1 type  2   force =     0.00000000    0.00069672    0.00068193
     atom    2 type  2   force =     0.00000000   -0.00069674    0.00068195
     atom    3 type  2   force =     0.00000000    0.00069673    0.00068193
     atom    4 type  2   force =     0.00000000   -0.00069675    0.00068194
     atom    5 type  2   force =     0.00000000    0.00171012    0.00352600
     atom    6 type  2   force =     0.00000000   -0.00171013    0.00352605
     atom    7 type  2   force =     0.00000000    0.00171013    0.00352602
     atom    8 type  2   force =     0.00000000   -0.00171013    0.00352604
     atom    9 type  1   force =     0.00000000    0.00124496    0.00015892
     atom   10 type  1   force =     0.00000000   -0.00124496    0.00015892
     atom   11 type  1   force =     0.00000000    0.00124496    0.00015891
     atom   12 type  1   force =     0.00000000   -0.00124496    0.00015892
     atom   13 type  1   force =     0.00000000    0.00169416   -0.00315178
     atom   14 type  1   force =     0.00000000   -0.00169416   -0.00315179
     atom   15 type  1   force =     0.00000000    0.00169418   -0.00315177
     atom   16 type  1   force =     0.00000000   -0.00169416   -0.00315178
     atom   17 type  1   force =    -0.00250529   -0.00291305   -0.00060754
     atom   18 type  1   force =     0.00250528    0.00291305   -0.00060755
     atom   19 type  1   force =    -0.00250528    0.00291305   -0.00060755
     atom   20 type  1   force =     0.00250529   -0.00291305   -0.00060754
     atom   21 type  1   force =    -0.00250529   -0.00291305   -0.00060755
     atom   22 type  1   force =     0.00250528    0.00291305   -0.00060755
     atom   23 type  1   force =    -0.00250528    0.00291305   -0.00060755
     atom   24 type  1   force =     0.00250529   -0.00291305   -0.00060755

     Total force =     0.015614     Total SCF correction =     0.000084


     Computing stress (Cartesian axis) and pressure

          total   stress  (Ry/bohr**3)                   (kbar)     P=       24.27
   0.00013200   0.00000000   0.00000000           19.42        0.00        0.00
   0.00000000   0.00017006  -0.00000000            0.00       25.02       -0.00
   0.00000000  -0.00000000   0.00019291            0.00       -0.00       28.38

     Energy error            =      5.1E-04 Ry
     Gradient error          =      3.5E-03 Ry/Bohr

     number of scf cycles    =   6
     number of bfgs steps    =   5

     energy             old  =    -276.0049029223 Ry
     energy             new  =    -276.0054108455 Ry

     CASE: energy            _new < energy            _old

     new trust radius        =       0.0070796777 bohr
     new conv_thr            =       0.0000000051 Ry


ATOMIC_POSITIONS (crystal)
O                0.0000000000        0.6676241143        0.0579767292
O                0.0000000000        0.3323758824        0.5579767209
O                0.5000000000        0.1676241121        0.0579767208
O                0.5000000000        0.8323758903        0.5579767371
O                0.5000000000        0.8352243136        0.9328006265
O                0.5000000000        0.1647756865        0.4328005986
O                0.0000000000        0.3352243156        0.9328006088
O                0.0000000000        0.6647756884        0.4328006102
H                0.0000000000        0.6659186299        0.2065162180
H                0.0000000000        0.3340813709        0.7065162090
H                0.5000000000        0.1659186296        0.2065162093
H                0.5000000000        0.8340813805        0.7065162259
H                0.0000000000        0.5346505212        0.0127944194
H                0.0000000000        0.4653494759        0.5127944130
H                0.5000000000        0.0346505168        0.0127944175
H                0.5000000000        0.9653494821        0.5127944209
H                0.6952051051        0.7683124334        0.9839560316
H                0.3047948994        0.2316875610        0.4839560147
H                0.6952051006        0.2316875610        0.4839560147
H                0.3047948949        0.7683124334        0.9839560316
H                0.1952051036        0.2683124367        0.9839560176
H                0.8047949003        0.7316875638        0.4839560265
H                0.1952050997        0.7316875638        0.4839560265
H                0.8047948964        0.2683124367        0.9839560176



     Writing config-only to output data dir ./iceIh/iceIh.save/ :
     XML data file
     NEW-OLD atomic charge density approx. for the potential

     total cpu time spent up to now is      583.4 secs

     per-process dynamical memory:    56.7 Mb

     Self-consistent Calculation

     iteration #  1     ecut=    90.00 Ry     beta= 0.70
     Davidson diagonalization with overlap
     ethr =  1.00E-06,  avg # of iterations =  3.1

     Threshold (ethr) on eigenvalues was too large:
     Diagonalizing with lowered threshold

     Davidson diagonalization with overlap
     ethr =  5.27E-08,  avg # of iterations =  2.0

     total cpu time spent up to now is      601.0 secs

     total energy              =    -276.00573446 Ry
     estimated scf accuracy    <       0.00003636 Ry

     iteration #  2     ecut=    90.00 Ry     beta= 0.70
     Davidson diagonalization with overlap
     ethr =  5.68E-08,  avg # of iterations =  2.0

     total cpu time spent up to now is      609.5 secs

     total energy              =    -276.00574057 Ry
     estimated scf accuracy    <       0.00000253 Ry

     iteration #  3     ecut=    90.00 Ry     beta= 0.70
     Davidson diagonalization with overlap
     ethr =  3.95E-09,  avg # of iterations =  2.0

     total cpu time spent up to now is      618.4 secs

     total energy              =    -276.00574119 Ry
     estimated scf accuracy    <       0.00000023 Ry

     iteration #  4     ecut=    90.00 Ry     beta= 0.70
     Davidson diagonalization with overlap
     ethr =  3.67E-10,  avg # of iterations =  2.0

     total cpu time spent up to now is      625.5 secs

     total energy              =    -276.00574123 Ry
     estimated scf accuracy    <       0.00000002 Ry

     iteration #  5     ecut=    90.00 Ry     beta= 0.70
     Davidson diagonalization with overlap
     ethr =  2.55E-11,  avg # of iterations =  3.0

     total cpu time spent up to now is      635.5 secs

     total energy              =    -276.00574123 Ry
     estimated scf accuracy    <          6.7E-09 Ry

     iteration #  6     ecut=    90.00 Ry     beta= 0.70
     Davidson diagonalization with overlap
     ethr =  1.05E-11,  avg # of iterations =  2.1

     total cpu time spent up to now is      643.5 secs

     End of self-consistent calculation

     Number of k-points >= 100: set verbosity='high' to print the bands.

     highest occupied level (ev):    -2.3604

!    total energy              =    -276.00574123 Ry
     estimated scf accuracy    <          5.8E-10 Ry

     The total energy is the sum of the following terms:
     one-electron contribution =    -214.76787878 Ry
     hartree contribution      =     130.24707924 Ry
     xc contribution           =     -68.00578420 Ry
     ewald contribution        =    -123.47915749 Ry

     convergence has been achieved in   6 iterations

     Forces acting on atoms (cartesian axes, Ry/au):

     atom    1 type  2   force =     0.00000000    0.00224519   -0.00036462
     atom    2 type  2   force =     0.00000000   -0.00224519   -0.00036462
     atom    3 type  2   force =     0.00000000    0.00224521   -0.00036462
     atom    4 type  2   force =     0.00000000   -0.00224519   -0.00036462
     atom    5 type  2   force =     0.00000000    0.00116607    0.00174679
     atom    6 type  2   force =     0.00000000   -0.00116608    0.00174682
     atom    7 type  2   force =     0.00000000    0.00116608    0.00174680
     atom    8 type  2   force =     0.00000000   -0.00116608    0.00174682
     atom    9 type  1   force =     0.00000000    0.00029138    0.00045371
     atom   10 type  1   force =     0.00000000   -0.00029138    0.00045371
     atom   11 type  1   force =     0.00000000    0.00029138    0.00045371
     atom   12 type  1   force =     0.00000000   -0.00029138    0.00045370
     atom   13 type  1   force =     0.00000000    0.00040151   -0.00196665
     atom   14 type  1   force =     0.00000000   -0.00040151   -0.00196665
     atom   15 type  1   force =     0.00000000    0.00040150   -0.00196665
     atom   16 type  1   force =     0.00000000   -0.00040152   -0.00196665
     atom   17 type  1   force =    -0.00093734   -0.00245700    0.00006538
     atom   18 type  1   force =     0.00093734    0.00245701    0.00006538
     atom   19 type  1   force =    -0.00093734    0.00245701    0.00006538
     atom   20 type  1   force =     0.00093734   -0.00245700    0.00006538
     atom   21 type  1   force =    -0.00093734   -0.00245701    0.00006538
     atom   22 type  1   force =     0.00093734    0.00245701    0.00006538
     atom   23 type  1   force =    -0.00093734    0.00245701    0.00006538
     atom   24 type  1   force =     0.00093734   -0.00245701    0.00006538

     Total force =     0.010535     Total SCF correction =     0.000055


     Computing stress (Cartesian axis) and pressure

          total   stress  (Ry/bohr**3)                   (kbar)     P=       25.66
   0.00014664   0.00000000   0.00000000           21.57        0.00        0.00
   0.00000000   0.00018211   0.00000000            0.00       26.79        0.00
   0.00000000   0.00000000   0.00019451            0.00        0.00       28.61

     Energy error            =      3.3E-04 Ry
     Gradient error          =      2.5E-03 Ry/Bohr

     number of scf cycles    =   7
     number of bfgs steps    =   6

     energy             old  =    -276.0054108455 Ry
     energy             new  =    -276.0057412299 Ry

     CASE: energy            _new < energy            _old

     new trust radius        =       0.0100490517 bohr
     new conv_thr            =       0.0000000033 Ry


ATOMIC_POSITIONS (crystal)
O                0.0000000000        0.6678210924        0.0580547843
O                0.0000000000        0.3321789056        0.5580547744
O                0.5000000000        0.1678210915        0.0580547749
O                0.5000000000        0.8321789122        0.5580547890
O                0.5000000000        0.8355730800        0.9334713692
O                0.5000000000        0.1644269168        0.4334713487
O                0.0000000000        0.3355730831        0.9334713545
O                0.0000000000        0.6644269202        0.4334713588
H                0.0000000000        0.6661267917        0.2065568274
H                0.0000000000        0.3338732083        0.7065568226
H                0.5000000000        0.1661267919        0.2065568179
H                0.5000000000        0.8338732184        0.7065568381
H                0.0000000000        0.5350066105        0.0121649021
H                0.0000000000        0.4649933847        0.5121648956
H                0.5000000000        0.0350066084        0.0121649010
H                0.5000000000        0.9649933901        0.5121649046
H                0.6945723499        0.7676874715        0.9838760849
H                0.3054276497        0.2323125245        0.4838760668
H                0.6945723503        0.2323125245        0.4838760668
H                0.3054276501        0.7676874715        0.9838760849
H                0.1945723487        0.2676874740        0.9838760704
H                0.8054276505        0.7323125272        0.4838760793
H                0.1945723495        0.7323125272        0.4838760793
H                0.8054276513        0.2676874740        0.9838760704



     Writing config-only to output data dir ./iceIh/iceIh.save/ :
     XML data file
     NEW-OLD atomic charge density approx. for the potential

     total cpu time spent up to now is      651.4 secs

     per-process dynamical memory:    56.7 Mb

     Self-consistent Calculation

     iteration #  1     ecut=    90.00 Ry     beta= 0.70
     Davidson diagonalization with overlap
     ethr =  1.00E-06,  avg # of iterations =  3.2

     Threshold (ethr) on eigenvalues was too large:
     Diagonalizing with lowered threshold

     Davidson diagonalization with overlap
     ethr =  9.64E-08,  avg # of iterations =  2.0

     total cpu time spent up to now is      670.3 secs

     total energy              =    -276.00595347 Ry
     estimated scf accuracy    <       0.00006850 Ry

     iteration #  2     ecut=    90.00 Ry     beta= 0.70
     Davidson diagonalization with overlap
     ethr =  1.07E-07,  avg # of iterations =  2.0

     total cpu time spent up to now is      678.1 secs

     total energy              =    -276.00596359 Ry
     estimated scf accuracy    <       0.00000259 Ry

     iteration #  3     ecut=    90.00 Ry     beta= 0.70
     Davidson diagonalization with overlap
     ethr =  4.05E-09,  avg # of iterations =  2.5

     total cpu time spent up to now is      687.4 secs

     total energy              =    -276.00596417 Ry
     estimated scf accuracy    <       0.00000055 Ry

     iteration #  4     ecut=    90.00 Ry     beta= 0.70
     Davidson diagonalization with overlap
     ethr =  8.52E-10,  avg # of iterations =  3.3

     total cpu time spent up to now is      697.0 secs

     total energy              =    -276.00596431 Ry
     estimated scf accuracy    <       0.00000011 Ry

     iteration #  5     ecut=    90.00 Ry     beta= 0.70
     Davidson diagonalization with overlap
     ethr =  1.70E-10,  avg # of iterations =  2.7

     total cpu time spent up to now is      705.4 secs

     total energy              =    -276.00596432 Ry
     estimated scf accuracy    <          4.5E-09 Ry

     iteration #  6     ecut=    90.00 Ry     beta= 0.70
     Davidson diagonalization with overlap
     ethr =  7.06E-12,  avg # of iterations =  3.7

     total cpu time spent up to now is      715.4 secs

     End of self-consistent calculation

     Number of k-points >= 100: set verbosity='high' to print the bands.

     highest occupied level (ev):    -2.3650

!    total energy              =    -276.00596433 Ry
     estimated scf accuracy    <          6.8E-10 Ry

     The total energy is the sum of the following terms:
     one-electron contribution =    -214.79434196 Ry
     hartree contribution      =     130.25887423 Ry
     xc contribution           =     -68.00801451 Ry
     ewald contribution        =    -123.46248209 Ry

     convergence has been achieved in   6 iterations

     Forces acting on atoms (cartesian axes, Ry/au):

     atom    1 type  2   force =     0.00000000    0.00215658   -0.00117747
     atom    2 type  2   force =     0.00000000   -0.00215661   -0.00117741
     atom    3 type  2   force =     0.00000000    0.00215660   -0.00117746
     atom    4 type  2   force =     0.00000000   -0.00215660   -0.00117740
     atom    5 type  2   force =     0.00000000   -0.00056451    0.00012245
     atom    6 type  2   force =     0.00000000    0.00056451    0.00012246
     atom    7 type  2   force =     0.00000000   -0.00056450    0.00012245
     atom    8 type  2   force =     0.00000000    0.00056452    0.00012247
     atom    9 type  1   force =     0.00000000   -0.00062582    0.00013869
     atom   10 type  1   force =     0.00000000    0.00062582    0.00013864
     atom   11 type  1   force =     0.00000000   -0.00062582    0.00013869
     atom   12 type  1   force =     0.00000000    0.00062581    0.00013864
     atom   13 type  1   force =     0.00000000    0.00006821   -0.00015053
     atom   14 type  1   force =     0.00000000   -0.00006819   -0.00015054
     atom   15 type  1   force =     0.00000000    0.00006820   -0.00015054
     atom   16 type  1   force =     0.00000000   -0.00006819   -0.00015054
     atom   17 type  1   force =     0.00062671   -0.00107218    0.00053342
     atom   18 type  1   force =    -0.00062670    0.00107218    0.00053343
     atom   19 type  1   force =     0.00062670    0.00107218    0.00053343
     atom   20 type  1   force =    -0.00062671   -0.00107218    0.00053342
     atom   21 type  1   force =     0.00062671   -0.00107218    0.00053343
     atom   22 type  1   force =    -0.00062670    0.00107218    0.00053342
     atom   23 type  1   force =     0.00062670    0.00107218    0.00053342
     atom   24 type  1   force =    -0.00062671   -0.00107218    0.00053343

     Total force =     0.006469     Total SCF correction =     0.000061


     Computing stress (Cartesian axis) and pressure

          total   stress  (Ry/bohr**3)                   (kbar)     P=       26.03
   0.00016056   0.00000000   0.00000000           23.62        0.00        0.00
   0.00000000   0.00018360  -0.00000000            0.00       27.01       -0.00
   0.00000000  -0.00000000   0.00018678            0.00       -0.00       27.48

     Energy error            =      2.2E-04 Ry
     Gradient error          =      2.2E-03 Ry/Bohr

     number of scf cycles    =   8
     number of bfgs steps    =   7

     energy             old  =    -276.0057412299 Ry
     energy             new  =    -276.0059643259 Ry

     CASE: energy            _new < energy            _old

     new trust radius        =       0.0026033022 bohr
     new conv_thr            =       0.0000000022 Ry


ATOMIC_POSITIONS (crystal)
O                0.0000000000        0.6679762895        0.0579874259
O                0.0000000000        0.3320237065        0.5579874197
O                0.5000000000        0.1679762897        0.0579874166
O                0.5000000000        0.8320237128        0.5579874344
O                0.5000000000        0.8355822969        0.9336141005
O                0.5000000000        0.1644177001        0.4336140826
O                0.0000000000        0.3355823003        0.9336140865
O                0.0000000000        0.6644177037        0.4336140925
H                0.0000000000        0.6661230577        0.2065554688
H                0.0000000000        0.3338769420        0.7065554616
H                0.5000000000        0.1661230583        0.2065554591
H                0.5000000000        0.8338769517        0.7065554764
H                0.0000000000        0.5351087090        0.0120436309
H                0.0000000000        0.4648912879        0.5120436238
H                0.5000000000        0.0351087068        0.0120436294
H                0.5000000000        0.9648912929        0.5120436327
H                0.6945261518        0.7675021534        0.9838997127
H                0.3054738483        0.2324978427        0.4838996943
H                0.6945261517        0.2324978427        0.4838996943
H                0.3054738482        0.7675021534        0.9838997127
H                0.1945261507        0.2675021557        0.9838996983
H                0.8054738490        0.7324978453        0.4838997070
H                0.1945261510        0.7324978453        0.4838997070
H                0.8054738493        0.2675021557        0.9838996983



     Writing config-only to output data dir ./iceIh/iceIh.save/ :
     XML data file
     NEW-OLD atomic charge density approx. for the potential

     total cpu time spent up to now is      723.4 secs

     per-process dynamical memory:    56.7 Mb

     Self-consistent Calculation

     iteration #  1     ecut=    90.00 Ry     beta= 0.70
     Davidson diagonalization with overlap
     ethr =  1.00E-06,  avg # of iterations =  2.0

     Threshold (ethr) on eigenvalues was too large:
     Diagonalizing with lowered threshold

     Davidson diagonalization with overlap
     ethr =  8.93E-09,  avg # of iterations =  3.0

     total cpu time spent up to now is      741.7 secs

     total energy              =    -276.00599776 Ry
     estimated scf accuracy    <       0.00000791 Ry

     iteration #  2     ecut=    90.00 Ry     beta= 0.70
     Davidson diagonalization with overlap
     ethr =  1.24E-08,  avg # of iterations =  3.0

     total cpu time spent up to now is      751.3 secs

     total energy              =    -276.00599915 Ry
     estimated scf accuracy    <       0.00000247 Ry

     iteration #  3     ecut=    90.00 Ry     beta= 0.70
     Davidson diagonalization with overlap
     ethr =  3.86E-09,  avg # of iterations =  3.1

     total cpu time spent up to now is      760.6 secs

     total energy              =    -276.00599982 Ry
     estimated scf accuracy    <       0.00000018 Ry

     iteration #  4     ecut=    90.00 Ry     beta= 0.70
     Davidson diagonalization with overlap
     ethr =  2.79E-10,  avg # of iterations =  2.5

     total cpu time spent up to now is      768.4 secs

     total energy              =    -276.00599984 Ry
     estimated scf accuracy    <       0.00000002 Ry

     iteration #  5     ecut=    90.00 Ry     beta= 0.70
     Davidson diagonalization with overlap
     ethr =  2.51E-11,  avg # of iterations =  4.2

     total cpu time spent up to now is      779.2 secs

     total energy              =    -276.00599985 Ry
     estimated scf accuracy    <          4.5E-09 Ry

     iteration #  6     ecut=    90.00 Ry     beta= 0.70
     Davidson diagonalization with overlap
     ethr =  6.97E-12,  avg # of iterations =  2.1

     total cpu time spent up to now is      786.9 secs

     End of self-consistent calculation

     Number of k-points >= 100: set verbosity='high' to print the bands.

     highest occupied level (ev):    -2.3651

!    total energy              =    -276.00599985 Ry
     estimated scf accuracy    <          3.1E-10 Ry

     The total energy is the sum of the following terms:
     one-electron contribution =    -214.76028140 Ry
     hartree contribution      =     130.24347572 Ry
     xc contribution           =     -68.00451780 Ry
     ewald contribution        =    -123.48467637 Ry

     convergence has been achieved in   6 iterations

     Forces acting on atoms (cartesian axes, Ry/au):

     atom    1 type  2   force =     0.00000000    0.00119889   -0.00064322
     atom    2 type  2   force =     0.00000000   -0.00119888   -0.00064325
     atom    3 type  2   force =     0.00000000    0.00119890   -0.00064323
     atom    4 type  2   force =     0.00000000   -0.00119888   -0.00064325
     atom    5 type  2   force =     0.00000000   -0.00093171   -0.00006634
     atom    6 type  2   force =     0.00000000    0.00093171   -0.00006634
     atom    7 type  2   force =     0.00000000   -0.00093171   -0.00006634
     atom    8 type  2   force =     0.00000000    0.00093171   -0.00006634
     atom    9 type  1   force =     0.00000000   -0.00049839   -0.00032636
     atom   10 type  1   force =     0.00000000    0.00049839   -0.00032635
     atom   11 type  1   force =     0.00000000   -0.00049839   -0.00032636
     atom   12 type  1   force =     0.00000000    0.00049838   -0.00032636
     atom   13 type  1   force =     0.00000000    0.00039178    0.00009518
     atom   14 type  1   force =     0.00000000   -0.00039179    0.00009519
     atom   15 type  1   force =     0.00000000    0.00039178    0.00009518
     atom   16 type  1   force =     0.00000000   -0.00039180    0.00009519
     atom   17 type  1   force =     0.00065431   -0.00060393    0.00047037
     atom   18 type  1   force =    -0.00065431    0.00060393    0.00047038
     atom   19 type  1   force =     0.00065431    0.00060393    0.00047038
     atom   20 type  1   force =    -0.00065431   -0.00060393    0.00047037
     atom   21 type  1   force =     0.00065431   -0.00060393    0.00047038
     atom   22 type  1   force =    -0.00065431    0.00060394    0.00047038
     atom   23 type  1   force =     0.00065431    0.00060394    0.00047038
     atom   24 type  1   force =    -0.00065431   -0.00060393    0.00047038

     Total force =     0.004591     Total SCF correction =     0.000021


     Computing stress (Cartesian axis) and pressure

          total   stress  (Ry/bohr**3)                   (kbar)     P=       25.58
   0.00016274   0.00000000   0.00000000           23.94        0.00        0.00
   0.00000000   0.00017905   0.00000000            0.00       26.34        0.00
   0.00000000   0.00000000   0.00017995            0.00        0.00       26.47

     Energy error            =      3.6E-05 Ry
     Gradient error          =      1.2E-03 Ry/Bohr

     number of scf cycles    =   9
     number of bfgs steps    =   8

     energy             old  =    -276.0059643259 Ry
     energy             new  =    -276.0059998472 Ry

     CASE: energy            _new < energy            _old

     new trust radius        =       0.0028636324 bohr
     new conv_thr            =       0.0000000010 Ry


ATOMIC_POSITIONS (crystal)
O                0.0000000000        0.6681650216        0.0578959347
O                0.0000000000        0.3318349756        0.5578959264
O                0.5000000000        0.1681650225        0.0578959250
O                0.5000000000        0.8318349817        0.5578959409
O                0.5000000000        0.8354925075        0.9337171287
O                0.5000000000        0.1645074889        0.4337171116
O                0.0000000000        0.3354925108        0.9337171151
O                0.0000000000        0.6645074928        0.4337171214
H                0.0000000000        0.6660814185        0.2065026125
H                0.0000000000        0.3339185808        0.7065026061
H                0.5000000000        0.1660814196        0.2065026030
H                0.5000000000        0.8339185896        0.7065026203
H                0.0000000000        0.5352404190        0.0119660344
H                0.0000000000        0.4647595769        0.5119660282
H                0.5000000000        0.0352404171        0.0119660323
H                0.5000000000        0.9647595813        0.5119660367
H                0.6945844801        0.7673201103        0.9839591702
H                0.3054155197        0.2326798863        0.4839591527
H                0.6945844803        0.2326798863        0.4839591527
H                0.3054155199        0.7673201103        0.9839591702
H                0.1945844792        0.2673201124        0.9839591561
H                0.8054155203        0.7326798889        0.4839591654
H                0.1945844797        0.7326798889        0.4839591654
H                0.8054155208        0.2673201124        0.9839591561



     Writing config-only to output data dir ./iceIh/iceIh.save/ :
     XML data file
     NEW-OLD atomic charge density approx. for the potential

     total cpu time spent up to now is      794.9 secs

     per-process dynamical memory:    56.7 Mb

     Self-consistent Calculation

     iteration #  1     ecut=    90.00 Ry     beta= 0.70
     Davidson diagonalization with overlap
     ethr =  1.00E-06,  avg # of iterations =  2.0

     Threshold (ethr) on eigenvalues was too large:
     Diagonalizing with lowered threshold

     Davidson diagonalization with overlap
     ethr =  1.46E-08,  avg # of iterations =  3.0

     total cpu time spent up to now is      812.9 secs

     total energy              =    -276.00602626 Ry
     estimated scf accuracy    <       0.00001130 Ry

     iteration #  2     ecut=    90.00 Ry     beta= 0.70
     Davidson diagonalization with overlap
     ethr =  1.77E-08,  avg # of iterations =  3.0

     total cpu time spent up to now is      822.8 secs

     total energy              =    -276.00602827 Ry
     estimated scf accuracy    <       0.00000640 Ry

     iteration #  3     ecut=    90.00 Ry     beta= 0.70
     Davidson diagonalization with overlap
     ethr =  9.99E-09,  avg # of iterations =  2.9

     total cpu time spent up to now is      831.8 secs

     total energy              =    -276.00602982 Ry
     estimated scf accuracy    <       0.00000011 Ry

     iteration #  4     ecut=    90.00 Ry     beta= 0.70
     Davidson diagonalization with overlap
     ethr =  1.73E-10,  avg # of iterations =  4.9

     total cpu time spent up to now is      843.6 secs

     total energy              =    -276.00602983 Ry
     estimated scf accuracy    <       0.00000013 Ry

     iteration #  5     ecut=    90.00 Ry     beta= 0.70
     Davidson diagonalization with overlap
     ethr =  1.73E-10,  avg # of iterations =  3.0

     total cpu time spent up to now is      853.5 secs

     total energy              =    -276.00602988 Ry
     estimated scf accuracy    <       0.00000001 Ry

     iteration #  6     ecut=    90.00 Ry     beta= 0.70
     Davidson diagonalization with overlap
     ethr =  2.12E-11,  avg # of iterations =  2.0

     total cpu time spent up to now is      861.4 secs

     total energy              =    -276.00602987 Ry
     estimated scf accuracy    <          7.3E-09 Ry

     iteration #  7     ecut=    90.00 Ry     beta= 0.70
     Davidson diagonalization with overlap
     ethr =  1.14E-11,  avg # of iterations =  2.1

     total cpu time spent up to now is      869.3 secs

     End of self-consistent calculation

     Number of k-points >= 100: set verbosity='high' to print the bands.

     highest occupied level (ev):    -2.3653

!    total energy              =    -276.00602988 Ry
     estimated scf accuracy    <          5.3E-10 Ry

     The total energy is the sum of the following terms:
     one-electron contribution =    -214.72479075 Ry
     hartree contribution      =     130.22743567 Ry
     xc contribution           =     -68.00091144 Ry
     ewald contribution        =    -123.50776335 Ry

     convergence has been achieved in   7 iterations

     Forces acting on atoms (cartesian axes, Ry/au):

     atom    1 type  2   force =     0.00000000    0.00003980   -0.00017956
     atom    2 type  2   force =     0.00000000   -0.00003981   -0.00017955
     atom    3 type  2   force =     0.00000000    0.00003980   -0.00017956
     atom    4 type  2   force =     0.00000000   -0.00003982   -0.00017955
     atom    5 type  2   force =     0.00000000   -0.00106591   -0.00008808
     atom    6 type  2   force =     0.00000000    0.00106591   -0.00008808
     atom    7 type  2   force =     0.00000000   -0.00106591   -0.00008808
     atom    8 type  2   force =     0.00000000    0.00106591   -0.00008808
     atom    9 type  1   force =     0.00000000   -0.00017057   -0.00044449
     atom   10 type  1   force =     0.00000000    0.00017056   -0.00044450
[...]
     atom    8 type  2   force =     0.00000000   -0.00016954    0.00003284
     atom    9 type  1   force =     0.00000000    0.00010920   -0.00009030
     atom   10 type  1   force =     0.00000000   -0.00010918   -0.00009027
     atom   11 type  1   force =     0.00000000    0.00010918   -0.00009029
     atom   12 type  1   force =     0.00000000   -0.00010915   -0.00009026
     atom   13 type  1   force =     0.00000000   -0.00022874    0.00001327
     atom   14 type  1   force =     0.00000000    0.00022871    0.00001327
     atom   15 type  1   force =     0.00000000   -0.00022876    0.00001328
     atom   16 type  1   force =     0.00000000    0.00022874    0.00001328
     atom   17 type  1   force =     0.00000535   -0.00004629    0.00005376
     atom   18 type  1   force =    -0.00000535    0.00004628    0.00005374
     atom   19 type  1   force =     0.00000535    0.00004628    0.00005374
     atom   20 type  1   force =    -0.00000535   -0.00004629    0.00005376
     atom   21 type  1   force =     0.00000534   -0.00004629    0.00005375
     atom   22 type  1   force =    -0.00000534    0.00004629    0.00005374
     atom   23 type  1   force =     0.00000534    0.00004629    0.00005374
     atom   24 type  1   force =    -0.00000534   -0.00004629    0.00005375

     Total force =     0.000724     Total SCF correction =     0.000010


     Computing stress (Cartesian axis) and pressure

          total   stress  (Ry/bohr**3)                   (kbar)     P=       24.83
   0.00016784   0.00000000   0.00000000           24.69        0.00        0.00
   0.00000000   0.00017302   0.00000000            0.00       25.45        0.00
   0.00000000   0.00000000   0.00016553            0.00        0.00       24.35

     Energy error            =      1.4E-06 Ry
     Gradient error          =      2.3E-04 Ry/Bohr

     number of scf cycles    =  34
     number of bfgs steps    =  33

     energy             old  =    -276.0063693074 Ry
     energy             new  =    -276.0063706985 Ry

     CASE: energy            _new < energy            _old

     new trust radius        =       0.0017120957 bohr
     new conv_thr            =       0.0000000010 Ry


ATOMIC_POSITIONS (crystal)
O                0.0000000000        0.6580989649        0.0578807304
O                0.0000000000        0.3419010543        0.5578807244
O                0.5000000000        0.1580989689        0.0578807486
O                0.5000000000        0.8419010147        0.5578806659
O                0.5000000000        0.8249527103        0.9334916654
O                0.5000000000        0.1750472884        0.4334917631
O                0.0000000000        0.3249527141        0.9334917217
O                0.0000000000        0.6750472733        0.4334917324
H                0.0000000000        0.6619034720        0.2063452028
H                0.0000000000        0.3380965265        0.7063451929
H                0.5000000000        0.1619034727        0.2063452203
H                0.5000000000        0.8380964706        0.7063451364
H                0.0000000000        0.5244327643        0.0151408338
H                0.0000000000        0.4755672645        0.5151408361
H                0.5000000000        0.0244327799        0.0151408231
H                0.5000000000        0.9755672298        0.5151408048
H                0.6947433845        0.7562470591        0.9825707463
H                0.3052566063        0.2437529536        0.4825708176
H                0.6947433937        0.2437529536        0.4825708176
H                0.3052566155        0.7562470591        0.9825707463
H                0.1947433886        0.2562470625        0.9825707928
H                0.8052566001        0.7437529402        0.4825707753
H                0.1947433999        0.7437529402        0.4825707753
H                0.8052566114        0.2562470625        0.9825707928



     Writing config-only to output data dir ./iceIh/iceIh.save/ :
     XML data file
     NEW-OLD atomic charge density approx. for the potential

     total cpu time spent up to now is     2590.4 secs

     per-process dynamical memory:    57.1 Mb

     Self-consistent Calculation

     iteration #  1     ecut=    90.00 Ry     beta= 0.70
     Davidson diagonalization with overlap
     ethr =  1.00E-06,  avg # of iterations =  2.0

     Threshold (ethr) on eigenvalues was too large:
     Diagonalizing with lowered threshold

     Davidson diagonalization with overlap
     ethr =  2.18E-09,  avg # of iterations =  4.3

     total cpu time spent up to now is     2611.2 secs

     total energy              =    -276.00637101 Ry
     estimated scf accuracy    <       0.00000217 Ry

     iteration #  2     ecut=    90.00 Ry     beta= 0.70
     Davidson diagonalization with overlap
     ethr =  3.40E-09,  avg # of iterations =  2.0

     total cpu time spent up to now is     2618.6 secs

     total energy              =    -276.00637133 Ry
     estimated scf accuracy    <       0.00000009 Ry

     iteration #  3     ecut=    90.00 Ry     beta= 0.70
     Davidson diagonalization with overlap
     ethr =  1.40E-10,  avg # of iterations =  2.1

     total cpu time spent up to now is     2627.3 secs

     total energy              =    -276.00637135 Ry
     estimated scf accuracy    <          7.5E-09 Ry

     iteration #  4     ecut=    90.00 Ry     beta= 0.70
     Davidson diagonalization with overlap
     ethr =  1.17E-11,  avg # of iterations =  2.9

     total cpu time spent up to now is     2636.9 secs

     total energy              =    -276.00637135 Ry
     estimated scf accuracy    <          1.2E-09 Ry

     iteration #  5     ecut=    90.00 Ry     beta= 0.70
     Davidson diagonalization with overlap
     ethr =  1.93E-12,  avg # of iterations =  2.0

     total cpu time spent up to now is     2645.6 secs

     End of self-consistent calculation

     Number of k-points >= 100: set verbosity='high' to print the bands.

     highest occupied level (ev):    -2.3774

!    total energy              =    -276.00637135 Ry
     estimated scf accuracy    <          6.1E-11 Ry

     The total energy is the sum of the following terms:
     one-electron contribution =    -214.55545266 Ry
     hartree contribution      =     130.13751282 Ry
     xc contribution           =     -67.99984625 Ry
     ewald contribution        =    -123.58858526 Ry

     convergence has been achieved in   5 iterations

     Forces acting on atoms (cartesian axes, Ry/au):

     atom    1 type  2   force =     0.00000000    0.00011069   -0.00009747
     atom    2 type  2   force =     0.00000000   -0.00011070   -0.00009745
     atom    3 type  2   force =     0.00000000    0.00011068   -0.00009746
     atom    4 type  2   force =     0.00000000   -0.00011068   -0.00009744
     atom    5 type  2   force =     0.00000000    0.00014171    0.00000379
     atom    6 type  2   force =     0.00000000   -0.00014170    0.00000376
     atom    7 type  2   force =     0.00000000    0.00014170    0.00000378
     atom    8 type  2   force =     0.00000000   -0.00014170    0.00000376
     atom    9 type  1   force =     0.00000000    0.00004319   -0.00003551
     atom   10 type  1   force =     0.00000000   -0.00004317   -0.00003549
     atom   11 type  1   force =     0.00000000    0.00004317   -0.00003550
     atom   12 type  1   force =     0.00000000   -0.00004315   -0.00003548
     atom   13 type  1   force =     0.00000000   -0.00017924    0.00004359
     atom   14 type  1   force =     0.00000000    0.00017922    0.00004358
     atom   15 type  1   force =     0.00000000   -0.00017925    0.00004360
     atom   16 type  1   force =     0.00000000    0.00017924    0.00004359
     atom   17 type  1   force =    -0.00004626   -0.00004283    0.00004280
     atom   18 type  1   force =     0.00004626    0.00004282    0.00004278
     atom   19 type  1   force =    -0.00004626    0.00004282    0.00004278
     atom   20 type  1   force =     0.00004626   -0.00004283    0.00004280
     atom   21 type  1   force =    -0.00004626   -0.00004283    0.00004280
     atom   22 type  1   force =     0.00004626    0.00004283    0.00004278
     atom   23 type  1   force =    -0.00004626    0.00004283    0.00004278
     atom   24 type  1   force =     0.00004626   -0.00004283    0.00004280

     Total force =     0.000602     Total SCF correction =     0.000019


     Computing stress (Cartesian axis) and pressure

          total   stress  (Ry/bohr**3)                   (kbar)     P=       24.81
   0.00016766   0.00000000   0.00000000           24.66        0.00        0.00
   0.00000000   0.00017274  -0.00000000            0.00       25.41       -0.00
   0.00000000  -0.00000000   0.00016547            0.00       -0.00       24.34

     Energy error            =      6.5E-07 Ry
     Gradient error          =      1.8E-04 Ry/Bohr

     number of scf cycles    =  35
     number of bfgs steps    =  34

     energy             old  =    -276.0063706985 Ry
     energy             new  =    -276.0063713494 Ry

     CASE: energy            _new < energy            _old

     new trust radius        =       0.0007158579 bohr
     new conv_thr            =       0.0000000010 Ry


ATOMIC_POSITIONS (crystal)
O                0.0000000000        0.6580987438        0.0578507896
O                0.0000000000        0.3419012744        0.5578507895
O                0.5000000000        0.1580987423        0.0578508107
O                0.5000000000        0.8419012417        0.5578507349
O                0.5000000000        0.8249844262        0.9335265274
O                0.5000000000        0.1750155738        0.4335266127
O                0.0000000000        0.3249844295        0.9335265798
O                0.0000000000        0.6750155588        0.4335265808
H                0.0000000000        0.6619446398        0.2063116683
H                0.0000000000        0.3380553643        0.7063116650
H                0.5000000000        0.1619446353        0.2063116887
H                0.5000000000        0.8380553168        0.7063116122
H                0.0000000000        0.5243989594        0.0151524538
H                0.0000000000        0.4756010646        0.5151524542
H                0.5000000000        0.0243989681        0.0151524484
H                0.5000000000        0.9756010372        0.5151524261
H                0.6947489569        0.7562578793        0.9825792451
H                0.3052510354        0.2437421316        0.4825793095
H                0.6947489646        0.2437421316        0.4825793095
H                0.3052510431        0.7562578793        0.9825792451
H                0.1947489599        0.2562578824        0.9825792900
H                0.8052510307        0.7437421187        0.4825792674
H                0.1947489693        0.7437421187        0.4825792674
H                0.8052510401        0.2562578824        0.9825792900



     Writing config-only to output data dir ./iceIh/iceIh.save/ :
     XML data file
     NEW-OLD atomic charge density approx. for the potential

     total cpu time spent up to now is     2653.5 secs

     per-process dynamical memory:    57.1 Mb

     Self-consistent Calculation

     iteration #  1     ecut=    90.00 Ry     beta= 0.70
     Davidson diagonalization with overlap
     ethr =  1.00E-06,  avg # of iterations =  2.0

     Threshold (ethr) on eigenvalues was too large:
     Diagonalizing with lowered threshold

     Davidson diagonalization with overlap
     ethr =  2.41E-10,  avg # of iterations =  4.6

     total cpu time spent up to now is     2673.9 secs

     total energy              =    -276.00637191 Ry
     estimated scf accuracy    <       0.00000028 Ry

     iteration #  2     ecut=    90.00 Ry     beta= 0.70
     Davidson diagonalization with overlap
     ethr =  4.43E-10,  avg # of iterations =  2.0

     total cpu time spent up to now is     2682.2 secs

     total energy              =    -276.00637196 Ry
     estimated scf accuracy    <       0.00000001 Ry

     iteration #  3     ecut=    90.00 Ry     beta= 0.70
     Davidson diagonalization with overlap
     ethr =  2.02E-11,  avg # of iterations =  2.0

     total cpu time spent up to now is     2691.0 secs

     total energy              =    -276.00637197 Ry
     estimated scf accuracy    <          1.9E-09 Ry

     iteration #  4     ecut=    90.00 Ry     beta= 0.70
     Davidson diagonalization with overlap
     ethr =  2.97E-12,  avg # of iterations =  2.0

     total cpu time spent up to now is     2699.2 secs

     End of self-consistent calculation

     Number of k-points >= 100: set verbosity='high' to print the bands.

     highest occupied level (ev):    -2.3772

!    total energy              =    -276.00637197 Ry
     estimated scf accuracy    <          1.3E-10 Ry

     The total energy is the sum of the following terms:
     one-electron contribution =    -214.55147923 Ry
     hartree contribution      =     130.13574514 Ry
     xc contribution           =     -67.99935235 Ry
     ewald contribution        =    -123.59128553 Ry

     convergence has been achieved in   4 iterations

     Forces acting on atoms (cartesian axes, Ry/au):

     atom    1 type  2   force =     0.00000000    0.00006851   -0.00002385
     atom    2 type  2   force =     0.00000000   -0.00006852   -0.00002383
     atom    3 type  2   force =     0.00000000    0.00006850   -0.00002385
     atom    4 type  2   force =     0.00000000   -0.00006851   -0.00002382
     atom    5 type  2   force =     0.00000000    0.00007637   -0.00003557
     atom    6 type  2   force =     0.00000000   -0.00007636   -0.00003559
     atom    7 type  2   force =     0.00000000    0.00007637   -0.00003557
     atom    8 type  2   force =     0.00000000   -0.00007636   -0.00003559
     atom    9 type  1   force =     0.00000000   -0.00000935   -0.00006274
     atom   10 type  1   force =     0.00000000    0.00000936   -0.00006273
     atom   11 type  1   force =     0.00000000   -0.00000936   -0.00006273
     atom   12 type  1   force =     0.00000000    0.00000938   -0.00006272
     atom   13 type  1   force =     0.00000000   -0.00007490    0.00005172
     atom   14 type  1   force =     0.00000000    0.00007489    0.00005172
     atom   15 type  1   force =     0.00000000   -0.00007491    0.00005173
     atom   16 type  1   force =     0.00000000    0.00007490    0.00005173
     atom   17 type  1   force =    -0.00006524   -0.00003073    0.00003522
     atom   18 type  1   force =     0.00006524    0.00003073    0.00003521
     atom   19 type  1   force =    -0.00006524    0.00003073    0.00003521
     atom   20 type  1   force =     0.00006524   -0.00003073    0.00003522
     atom   21 type  1   force =    -0.00006524   -0.00003073    0.00003522
     atom   22 type  1   force =     0.00006524    0.00003073    0.00003521
     atom   23 type  1   force =    -0.00006524    0.00003073    0.00003521
     atom   24 type  1   force =     0.00006524   -0.00003073    0.00003522

     Total force =     0.000388     Total SCF correction =     0.000020


     Computing stress (Cartesian axis) and pressure

          total   stress  (Ry/bohr**3)                   (kbar)     P=       24.74
   0.00016746   0.00000000   0.00000000           24.63        0.00        0.00
   0.00000000   0.00017234  -0.00000000            0.00       25.35       -0.00
   0.00000000  -0.00000000   0.00016464            0.00       -0.00       24.22

     Energy error            =      6.2E-07 Ry
     Gradient error          =      7.6E-05 Ry/Bohr

     bfgs converged in  36 scf cycles and  35 bfgs steps
     (criteria: energy <  1.0E-04 Ry, force <  1.0E-04 Ry/Bohr)

     End of BFGS Geometry Optimization

     Final energy             =    -276.0063719673 Ry

     File ./iceIh/iceIh.bfgs deleted, as requested
Begin final coordinates

ATOMIC_POSITIONS (crystal)
O                0.0000000000        0.6580987438        0.0578507896
O                0.0000000000        0.3419012744        0.5578507895
O                0.5000000000        0.1580987423        0.0578508107
O                0.5000000000        0.8419012417        0.5578507349
O                0.5000000000        0.8249844262        0.9335265274
O                0.5000000000        0.1750155738        0.4335266127
O                0.0000000000        0.3249844295        0.9335265798
O                0.0000000000        0.6750155588        0.4335265808
H                0.0000000000        0.6619446398        0.2063116683
H                0.0000000000        0.3380553643        0.7063116650
H                0.5000000000        0.1619446353        0.2063116887
H                0.5000000000        0.8380553168        0.7063116122
H                0.0000000000        0.5243989594        0.0151524538
H                0.0000000000        0.4756010646        0.5151524542
H                0.5000000000        0.0243989681        0.0151524484
H                0.5000000000        0.9756010372        0.5151524261
H                0.6947489569        0.7562578793        0.9825792451
H                0.3052510354        0.2437421316        0.4825793095
H                0.6947489646        0.2437421316        0.4825793095
H                0.3052510431        0.7562578793        0.9825792451
H                0.1947489599        0.2562578824        0.9825792900
H                0.8052510307        0.7437421187        0.4825792674
H                0.1947489693        0.7437421187        0.4825792674
H                0.8052510401        0.2562578824        0.9825792900
End final coordinates



     Writing all to output data dir ./iceIh/iceIh.save/ :
     XML data file, charge density, pseudopotentials, collected wavefunctions

     init_run     :      4.18s CPU      4.27s WALL (       1 calls)
     electrons    :   2375.33s CPU   2417.16s WALL (      36 calls)
     update_pot   :      0.44s CPU      0.46s WALL (      35 calls)
     forces       :     17.85s CPU     17.90s WALL (      36 calls)
     stress       :    261.78s CPU    261.93s WALL (      36 calls)

     Called by init_run:
     wfcinit      :      3.74s CPU      3.79s WALL (       1 calls)
     potinit      :      0.02s CPU      0.03s WALL (       1 calls)
     hinit0       :      0.35s CPU      0.37s WALL (       1 calls)

     Called by electrons:
     c_bands      :   2118.28s CPU   2155.53s WALL (     250 calls)
     sum_band     :    253.41s CPU    256.03s WALL (     250 calls)
     v_of_rho     :      2.57s CPU      2.58s WALL (     261 calls)
     newd         :      0.47s CPU      0.48s WALL (     261 calls)
     mix_rho      :      0.34s CPU      0.34s WALL (     250 calls)

     Called by c_bands:
     init_us_2    :     29.54s CPU     30.59s WALL (   65895 calls)
     cegterg      :   2044.28s CPU   2063.79s WALL (   28750 calls)

     Called by *egterg:
     cdiaghg      :    186.10s CPU    187.02s WALL (  106101 calls)
     h_psi        :   1546.53s CPU   1563.69s WALL (  113116 calls)
     s_psi        :     59.55s CPU     59.99s WALL (  113116 calls)
     g_psi        :      5.34s CPU      5.36s WALL (   84251 calls)

     Called by h_psi:
     h_psi:calbec :     90.02s CPU     90.88s WALL (  113116 calls)
     vloc_psi     :   1384.18s CPU   1399.70s WALL (  113116 calls)
     add_vuspsi   :     62.32s CPU     62.90s WALL (  113116 calls)

     General routines
     calbec       :    127.65s CPU    128.86s WALL (  162566 calls)
     fft          :      1.70s CPU      1.71s WALL (    3219 calls)
     ffts         :      0.13s CPU      0.13s WALL (     250 calls)
     fftw         :   1455.55s CPU   1471.33s WALL ( 6707166 calls)

     Parallel routines

     PWSCF        :  44m25.27s CPU  45m15.87s WALL


   This run was terminated on:  19:56: 0  31Mar2026            

=------------------------------------------------------------------------------=
   JOB DONE.
=------------------------------------------------------------------------------=
