
     Program PWSCF v.7.3.1 starts on 31Mar2026 at 19:56: 5 

     This program is part of the open-source Quantum ESPRESSO suite
     for quantum simulation of materials; please cite
         "P. Giannozzi et al., J. Phys.:Condens. Matter 21 395502 (2009);
         "P. Giannozzi et al., J. Phys.:Condens. Matter 29 465901 (2017);
         "P. Giannozzi et al., J. Chem. Phys. 152 154105 (2020);
          URL http://www.quantum-espresso.org", 
     in publications or presentations arising from this work. More details at
     http://www.quantum-espresso.org/quote

     Parallel version (MPI), running on   128 processors

     MPI processes distributed on     1 nodes
     495717 MiB available memory on the printing compute node when the environment starts

     Waiting for input...
     Reading input from standard input

     Current dimensions of program PWSCF are:
     Max number of different atomic species (ntypx) = 10
     Max number of k-points (npk) =  40000
     Max angular momentum in pseudopotentials (lmaxx) =  4
     Found identity + ( -0.5000 -0.5000  0.0000) symmetry
     This is a supercell, fractional translations are disabled

     K-points division:     npool     =       4
     R & G space division:  proc/nbgrp/npool/nimage =      32
     Subspace diagonalization in iterative solution of the eigenvalue problem:
     a serial algorithm will be used


     Parallelization info
     --------------------
     sticks:   dense  smooth     PW     G-vecs:    dense   smooth      PW
     Min          99      99     27                 5199     5199     759
     Max         100     100     28                 5202     5202     766
     Sum        3175    3175    881               166397   166397   24349

     Using Slab Decomposition



     bravais-lattice index     =            8
     lattice parameter (alat)  =       7.9971  a.u.
     unit-cell volume          =    1441.9634 (a.u.)^3
     number of atoms/cell      =           24
     number of atomic types    =            2
     number of electrons       =        64.00
     number of Kohn-Sham states=           32
     kinetic-energy cutoff     =      90.0000  Ry
     charge density cutoff     =     360.0000  Ry
     scf convergence threshold =      1.0E-07
     mixing beta               =       0.7000
     number of iterations used =            8  plain     mixing
     energy convergence thresh.=      1.0E-04
     force convergence thresh. =      1.0E-04
     Exchange-correlation=  SLA  PW   PBE  PBE
                           (   1   4   3   4   0   0   0)
     nstep                     =           50


     celldm(1)=   7.997094  celldm(2)=   1.732119  celldm(3)=   1.627721
     celldm(4)=   0.000000  celldm(5)=   0.000000  celldm(6)=   0.000000

     crystal axes: (cart. coord. in units of alat)
               a(1) = (   1.000000   0.000000   0.000000 )  
               a(2) = (   0.000000   1.732119   0.000000 )  
               a(3) = (   0.000000   0.000000   1.627721 )  

     reciprocal axes: (cart. coord. in units 2 pi/alat)
               b(1) = (  1.000000  0.000000  0.000000 )  
               b(2) = (  0.000000  0.577328  0.000000 )  
               b(3) = (  0.000000  0.000000  0.614356 )  


     PseudoPot. # 1 for H  read from file:
     ./H.pbe-van_ak.UPF
     MD5 check sum: 077eb6d537518a38cb46c6de387227b7
     Pseudo is Ultrasoft, Zval =  1.0
     Generated by new atomic code, or converted to UPF format
     Using radial grid of  615 points,  1 beta functions with: 
                l(1) =   0
     Q(r) pseudized with  8 coefficients,  rinner =    0.800

     PseudoPot. # 2 for O  read from file:
     ./O.pbe-van_ak.UPF
     MD5 check sum: 78c19812648e8988a0fe644b0f25305e
     Pseudo is Ultrasoft, Zval =  6.0
     Generated by new atomic code, or converted to UPF format
     Using radial grid of  737 points,  4 beta functions with: 
                l(1) =   0
                l(2) =   0
                l(3) =   1
                l(4) =   1
     Q(r) pseudized with  8 coefficients,  rinner =    0.800   0.800   0.800


     atomic species   valence    mass     pseudopotential
     H                 1.00     1.00800     H ( 1.00)
     O                 6.00    16.00000     O ( 1.00)

      2 Sym. Ops. (no inversion) found



   Cartesian axes

     site n.     atom                  positions (alat units)
         1        O      tau(   1) = (   0.0000000   1.1515127   0.1027092  )
         2        O      tau(   2) = (   0.0000000   0.5806063   0.9165697  )
         3        O      tau(   3) = (   0.5000000   0.2854532   0.1027092  )
         4        O      tau(   4) = (   0.5000000   1.4466659   0.9165697  )
         5        O      tau(   5) = (   0.5000000   1.4298643   1.5250118  )
         6        O      tau(   6) = (   0.5000000   0.3022548   0.7111513  )
         7        O      tau(   7) = (   0.0000000   0.5638048   1.5250118  )
         8        O      tau(   8) = (   0.0000000   1.1683143   0.7111513  )
         9        H      tau(   9) = (   0.0000000   1.1494343   0.3195216  )
        10        H      tau(  10) = (   0.0000000   0.5826848   1.1333822  )
        11        H      tau(  11) = (   0.5000000   0.2833747   0.3195216  )
        12        H      tau(  12) = (   0.5000000   1.4487443   1.1333822  )
        13        H      tau(  13) = (   0.0000000   0.9289355   0.0297873  )
        14        H      tau(  14) = (   0.0000000   0.8031836   0.8436478  )
        15        H      tau(  15) = (   0.5000000   0.0628759   0.0297873  )
        16        H      tau(  16) = (   0.5000000   1.6692431   0.8436478  )
        17        H      tau(  17) = (   0.6766000   1.3420459   1.5979337  )
        18        H      tau(  18) = (   0.3234000   0.3900732   0.7840732  )
        19        H      tau(  19) = (   0.6766000   0.3900732   0.7840732  )
        20        H      tau(  20) = (   0.3234000   1.3420459   1.5979337  )
        21        H      tau(  21) = (   0.1766000   0.4759863   1.5979337  )
        22        H      tau(  22) = (   0.8234000   1.2561327   0.7840732  )
        23        H      tau(  23) = (   0.1766000   1.2561327   0.7840732  )
        24        H      tau(  24) = (   0.8234000   0.4759863   1.5979337  )

     number of k points=   460

     Number of k-points >= 100: set verbosity='high' to print them.

     Dense  grid:   166397 G-vectors     FFT dimensions: (  50,  90,  80)

     Estimated max dynamical RAM per process >      43.80 MB

     Estimated total dynamical RAM >       5.36 GB

     Initial potential from superposition of free atoms

     starting charge      63.9998, renormalised to      64.0000
     Starting wfcs are   48 randomized atomic wfcs

     total cpu time spent up to now is        4.5 secs

     per-process dynamical memory:    51.8 Mb

     Self-consistent Calculation

     iteration #  1     ecut=    90.00 Ry     beta= 0.70
     Davidson diagonalization with overlap
     ethr =  1.00E-02,  avg # of iterations =  2.0

     total cpu time spent up to now is       13.0 secs

     total energy              =    -274.53354058 Ry
     estimated scf accuracy    <       3.12974540 Ry

     iteration #  2     ecut=    90.00 Ry     beta= 0.70
     Davidson diagonalization with overlap
     ethr =  4.89E-03,  avg # of iterations =  3.0

     total cpu time spent up to now is       23.6 secs

     total energy              =    -275.54750641 Ry
     estimated scf accuracy    <       1.29987496 Ry

     iteration #  3     ecut=    90.00 Ry     beta= 0.70
     Davidson diagonalization with overlap
     ethr =  2.03E-03,  avg # of iterations =  2.0

     total cpu time spent up to now is       31.6 secs

     total energy              =    -275.70231835 Ry
     estimated scf accuracy    <       0.05091825 Ry

     iteration #  4     ecut=    90.00 Ry     beta= 0.70
     Davidson diagonalization with overlap
     ethr =  7.96E-05,  avg # of iterations =  4.0

     total cpu time spent up to now is       43.2 secs

     total energy              =    -275.73689175 Ry
     estimated scf accuracy    <       0.06103450 Ry

     iteration #  5     ecut=    90.00 Ry     beta= 0.70
     Davidson diagonalization with overlap
     ethr =  7.96E-05,  avg # of iterations =  2.0

     total cpu time spent up to now is       51.0 secs

     total energy              =    -275.74094632 Ry
     estimated scf accuracy    <       0.00780828 Ry

     iteration #  6     ecut=    90.00 Ry     beta= 0.70
     Davidson diagonalization with overlap
     ethr =  1.22E-05,  avg # of iterations =  2.0

     total cpu time spent up to now is       59.3 secs

     total energy              =    -275.74180537 Ry
     estimated scf accuracy    <       0.00125130 Ry

     iteration #  7     ecut=    90.00 Ry     beta= 0.70
     Davidson diagonalization with overlap
     ethr =  1.96E-06,  avg # of iterations =  3.0

     total cpu time spent up to now is       68.6 secs

     total energy              =    -275.74220264 Ry
     estimated scf accuracy    <       0.00001372 Ry

     iteration #  8     ecut=    90.00 Ry     beta= 0.70
     Davidson diagonalization with overlap
     ethr =  2.14E-08,  avg # of iterations =  4.8

     total cpu time spent up to now is       80.7 secs

     total energy              =    -275.74221186 Ry
     estimated scf accuracy    <       0.00000662 Ry

     iteration #  9     ecut=    90.00 Ry     beta= 0.70
     Davidson diagonalization with overlap
     ethr =  1.03E-08,  avg # of iterations =  3.0

     total cpu time spent up to now is       91.1 secs

     total energy              =    -275.74221552 Ry
     estimated scf accuracy    <       0.00000189 Ry

     iteration # 10     ecut=    90.00 Ry     beta= 0.70
     Davidson diagonalization with overlap
     ethr =  2.95E-09,  avg # of iterations =  2.7

     total cpu time spent up to now is       99.8 secs

     total energy              =    -275.74221419 Ry
     estimated scf accuracy    <       0.00000496 Ry

     iteration # 11     ecut=    90.00 Ry     beta= 0.70
     Davidson diagonalization with overlap
     ethr =  2.95E-09,  avg # of iterations =  2.0

     total cpu time spent up to now is      107.9 secs

     total energy              =    -275.74221388 Ry
     estimated scf accuracy    <       0.00000121 Ry

     iteration # 12     ecut=    90.00 Ry     beta= 0.70
     Davidson diagonalization with overlap
     ethr =  1.89E-09,  avg # of iterations =  3.0

     total cpu time spent up to now is      117.3 secs

     End of self-consistent calculation

     Number of k-points >= 100: set verbosity='high' to print the bands.

     highest occupied level (ev):    -2.6302

!    total energy              =    -275.74221418 Ry
     estimated scf accuracy    <          4.3E-09 Ry

     The total energy is the sum of the following terms:
     one-electron contribution =    -227.14497932 Ry
     hartree contribution      =     135.69963342 Ry
     xc contribution           =     -69.10590218 Ry
     ewald contribution        =    -115.19096610 Ry

     convergence has been achieved in  12 iterations

     Forces acting on atoms (cartesian axes, Ry/au):

     atom    1 type  2   force =     0.00000000    0.01257843   -0.16509482
     atom    2 type  2   force =     0.00000000   -0.01257714   -0.16509228
     atom    3 type  2   force =     0.00000000    0.01257953   -0.16509582
     atom    4 type  2   force =     0.00000000   -0.01257926   -0.16509417
     atom    5 type  2   force =     0.00000000    0.23729734   -0.17817612
     atom    6 type  2   force =     0.00000000   -0.23729759   -0.17817628
     atom    7 type  2   force =     0.00000000    0.23729659   -0.17817566
     atom    8 type  2   force =     0.00000000   -0.23729640   -0.17817592
     atom    9 type  1   force =     0.00000000    0.00031027    0.16789002
     atom   10 type  1   force =     0.00000000   -0.00031048    0.16788985
     atom   11 type  1   force =     0.00000000    0.00031028    0.16788924
     atom   12 type  1   force =     0.00000000   -0.00031052    0.16788861
     atom   13 type  1   force =     0.00000000   -0.01641741   -0.00921884
     atom   14 type  1   force =     0.00000000    0.01641752   -0.00921893
     atom   15 type  1   force =     0.00000000   -0.01641695   -0.00921870
     atom   16 type  1   force =     0.00000000    0.01641678   -0.00921871
     atom   17 type  1   force =     0.20636888   -0.11786899    0.09229986
     atom   18 type  1   force =    -0.20636884    0.11786881    0.09229993
     atom   19 type  1   force =     0.20636884    0.11786881    0.09229993
     atom   20 type  1   force =    -0.20636888   -0.11786899    0.09229986
     atom   21 type  1   force =     0.20636875   -0.11786884    0.09229974
     atom   22 type  1   force =    -0.20636853    0.11786852    0.09229973
     atom   23 type  1   force =     0.20636853    0.11786852    0.09229973
     atom   24 type  1   force =    -0.20636875   -0.11786884    0.09229974

     Total force =     1.046925     Total SCF correction =     0.000139


     Computing stress (Cartesian axis) and pressure

          total   stress  (Ry/bohr**3)                   (kbar)     P=      203.89
   0.00194358   0.00000000   0.00000000          285.91        0.00        0.00
   0.00000000   0.00075002  -0.00000000            0.00      110.33       -0.00
   0.00000000  -0.00000000   0.00146452            0.00       -0.00      215.44


     BFGS Geometry Optimization
     Energy error            =      0.0E+00 Ry
     Gradient error          =      2.4E-01 Ry/Bohr

     number of scf cycles    =   1
     number of bfgs steps    =   0

     energy             new  =    -275.7422141822 Ry

     new trust radius        =       0.2967438843 bohr
     new conv_thr            =       0.0000001000 Ry


ATOMIC_POSITIONS (crystal)
O                0.0000000000        0.6657080522        0.0504170232
O                0.0000000000        0.3342920412        0.5504171953
O                0.5000000000        0.1657081319        0.0504169462
O                0.5000000000        0.8342918882        0.5504170505
O                0.5000000000        0.8426310206        0.9232121031
O                0.5000000000        0.1573689617        0.4232120613
O                0.0000000000        0.3426309664        0.9232121388
O                0.0000000000        0.6573690474        0.4232120892
H                0.0000000000        0.6636224273        0.2091977135
H                0.0000000000        0.3363775575        0.7091977308
H                0.5000000000        0.1636224279        0.2091976539
H                0.5000000000        0.8363775550        0.7091976356
H                0.0000000000        0.5351147957        0.0175917879
H                0.0000000000        0.4648852121        0.5175917768
H                0.5000000000        0.0351148285        0.0175917982
H                0.5000000000        0.9648851586        0.5175917938
H                0.7024054643        0.7662907854        0.9887906993
H                0.2975945407        0.2337092015        0.4887907049
H                0.7024054593        0.2337092015        0.4887907049
H                0.2975945357        0.7662907854        0.9887906993
H                0.2024054478        0.2662907962        0.9887906905
H                0.7975945799        0.7337091809        0.4887906892
H                0.2024054201        0.7337091809        0.4887906892
H                0.7975945522        0.2662907962        0.9887906905



     Writing config-only to output data dir ./iceIh/iceIh.save/ :
     XML data file
     NEW-OLD atomic charge density approx. for the potential

     total cpu time spent up to now is      125.3 secs

     per-process dynamical memory:    56.1 Mb

     Self-consistent Calculation

     iteration #  1     ecut=    90.00 Ry     beta= 0.70
     Davidson diagonalization with overlap
     ethr =  1.00E-06,  avg # of iterations = 12.0

     total cpu time spent up to now is      156.0 secs

     total energy              =    -275.83556413 Ry
     estimated scf accuracy    <       0.24446203 Ry

     iteration #  2     ecut=    90.00 Ry     beta= 0.70
     Davidson diagonalization with overlap
     ethr =  3.82E-04,  avg # of iterations =  2.7

     total cpu time spent up to now is      165.7 secs

     total energy              =    -275.89586494 Ry
     estimated scf accuracy    <       0.05073675 Ry

     iteration #  3     ecut=    90.00 Ry     beta= 0.70
     Davidson diagonalization with overlap
     ethr =  7.93E-05,  avg # of iterations =  2.4

     total cpu time spent up to now is      174.6 secs

     total energy              =    -275.90461400 Ry
     estimated scf accuracy    <       0.00198625 Ry

     iteration #  4     ecut=    90.00 Ry     beta= 0.70
     Davidson diagonalization with overlap
     ethr =  3.10E-06,  avg # of iterations =  3.0

     total cpu time spent up to now is      184.4 secs

     total energy              =    -275.90518428 Ry
     estimated scf accuracy    <       0.00043832 Ry

     iteration #  5     ecut=    90.00 Ry     beta= 0.70
     Davidson diagonalization with overlap
     ethr =  6.85E-07,  avg # of iterations =  2.2

     total cpu time spent up to now is      193.1 secs

     total energy              =    -275.90524893 Ry
     estimated scf accuracy    <       0.00006263 Ry

     iteration #  6     ecut=    90.00 Ry     beta= 0.70
     Davidson diagonalization with overlap
     ethr =  9.79E-08,  avg # of iterations =  3.3

     total cpu time spent up to now is      203.2 secs

     total energy              =    -275.90526213 Ry
     estimated scf accuracy    <       0.00002127 Ry

     iteration #  7     ecut=    90.00 Ry     beta= 0.70
     Davidson diagonalization with overlap
     ethr =  3.32E-08,  avg # of iterations =  2.9

     total cpu time spent up to now is      213.0 secs

     total energy              =    -275.90526847 Ry
     estimated scf accuracy    <       0.00000142 Ry

     iteration #  8     ecut=    90.00 Ry     beta= 0.70
     Davidson diagonalization with overlap
     ethr =  2.22E-09,  avg # of iterations =  2.0

     total cpu time spent up to now is      220.8 secs

     total energy              =    -275.90526828 Ry
     estimated scf accuracy    <       0.00000075 Ry

     iteration #  9     ecut=    90.00 Ry     beta= 0.70
     Davidson diagonalization with overlap
     ethr =  1.17E-09,  avg # of iterations =  2.0

     total cpu time spent up to now is      229.7 secs

     End of self-consistent calculation

     Number of k-points >= 100: set verbosity='high' to print the bands.

     highest occupied level (ev):    -2.1806

!    total energy              =    -275.90526842 Ry
     estimated scf accuracy    <       0.00000001 Ry

     The total energy is the sum of the following terms:
     one-electron contribution =    -210.99932743 Ry
     hartree contribution      =     128.47251603 Ry
     xc contribution           =     -67.49278179 Ry
     ewald contribution        =    -125.88567523 Ry

     convergence has been achieved in   9 iterations

     Forces acting on atoms (cartesian axes, Ry/au):

     atom    1 type  2   force =     0.00000000    0.06933123    0.07994939
     atom    2 type  2   force =     0.00000000   -0.06933206    0.07994842
     atom    3 type  2   force =     0.00000000    0.06933067    0.07994964
     atom    4 type  2   force =     0.00000000   -0.06933084    0.07994892
     atom    5 type  2   force =     0.00000000   -0.09546360    0.07586975
     atom    6 type  2   force =     0.00000000    0.09546379    0.07586983
     atom    7 type  2   force =     0.00000000   -0.09546325    0.07586953
     atom    8 type  2   force =     0.00000000    0.09546318    0.07586941
     atom    9 type  1   force =     0.00000000    0.01025189   -0.03101535
     atom   10 type  1   force =     0.00000000   -0.01025159   -0.03101474
     atom   11 type  1   force =     0.00000000    0.01025203   -0.03101545
     atom   12 type  1   force =     0.00000000   -0.01025191   -0.03101494
     atom   13 type  1   force =     0.00000000   -0.04980193   -0.03573624
     atom   14 type  1   force =     0.00000000    0.04980234   -0.03573614
     atom   15 type  1   force =     0.00000000   -0.04980165   -0.03573630
     atom   16 type  1   force =     0.00000000    0.04980165   -0.03573621
     atom   17 type  1   force =    -0.04259827    0.03405401   -0.04453373
     atom   18 type  1   force =     0.04259833   -0.03405403   -0.04453376
     atom   19 type  1   force =    -0.04259833   -0.03405403   -0.04453376
     atom   20 type  1   force =     0.04259827    0.03405401   -0.04453373
     atom   21 type  1   force =    -0.04259816    0.03405387   -0.04453362
     atom   22 type  1   force =     0.04259812   -0.03405382   -0.04453365
     atom   23 type  1   force =    -0.04259812   -0.03405382   -0.04453365
     atom   24 type  1   force =     0.04259816    0.03405387   -0.04453362

     Total force =     0.404018     Total SCF correction =     0.000342


     Computing stress (Cartesian axis) and pressure

          total   stress  (Ry/bohr**3)                   (kbar)     P=      -30.70
  -0.00050781   0.00000000   0.00000000          -74.70        0.00        0.00
   0.00000000   0.00023852  -0.00000000            0.00       35.09       -0.00
   0.00000000  -0.00000000  -0.00035672            0.00       -0.00      -52.47

     Energy error            =      1.6E-01 Ry
     Gradient error          =      9.5E-02 Ry/Bohr

     number of scf cycles    =   2
     number of bfgs steps    =   1

     energy             old  =    -275.7422141822 Ry
     energy             new  =    -275.9052684220 Ry

     CASE: energy            _new < energy            _old

     new trust radius        =       0.0842185735 bohr
     new conv_thr            =       0.0000001000 Ry


ATOMIC_POSITIONS (crystal)
O                0.0000000000        0.6695395114        0.0547235695
O                0.0000000000        0.3304605395        0.5547236904
O                0.5000000000        0.1695395625        0.0547235050
O                0.5000000000        0.8304604489        0.5547235707
O                0.5000000000        0.8378817500        0.9272515877
O                0.5000000000        0.1621182422        0.4272515501
O                0.0000000000        0.3378817134        0.9272516119
O                0.0000000000        0.6621182969        0.4272515543
H                0.0000000000        0.6641857751        0.2077554771
H                0.0000000000        0.3358142256        0.7077555296
H                0.5000000000        0.1641857834        0.2077554103
H                0.5000000000        0.8358142057        0.7077554202
H                0.0000000000        0.5323473260        0.0154842102
H                0.0000000000        0.4676527043        0.5154842049
H                0.5000000000        0.0323473754        0.0154842171
H                0.5000000000        0.9676526113        0.5154842181
H                0.6990944658        0.7679162848        0.9863925936
H                0.3009055445        0.2320837005        0.4863925971
H                0.6990944555        0.2320837005        0.4863925971
H                0.3009055342        0.7679162848        0.9863925936
H                0.1990944593        0.2679162884        0.9863925909
H                0.8009055653        0.7320836905        0.4863925878
H                0.1990944347        0.7320836905        0.4863925878
H                0.8009055407        0.2679162884        0.9863925909



     Writing config-only to output data dir ./iceIh/iceIh.save/ :
     XML data file
     NEW-OLD atomic charge density approx. for the potential

     total cpu time spent up to now is      237.7 secs

     per-process dynamical memory:    57.5 Mb

     Self-consistent Calculation

     iteration #  1     ecut=    90.00 Ry     beta= 0.70
     Davidson diagonalization with overlap
     ethr =  1.00E-06,  avg # of iterations =  9.2

     total cpu time spent up to now is      261.0 secs

     total energy              =    -275.97800329 Ry
     estimated scf accuracy    <       0.01435612 Ry

     iteration #  2     ecut=    90.00 Ry     beta= 0.70
     Davidson diagonalization with overlap
     ethr =  2.24E-05,  avg # of iterations =  2.3

     total cpu time spent up to now is      270.2 secs

     total energy              =    -275.98102316 Ry
     estimated scf accuracy    <       0.00208476 Ry

     iteration #  3     ecut=    90.00 Ry     beta= 0.70
     Davidson diagonalization with overlap
     ethr =  3.26E-06,  avg # of iterations =  2.4

     total cpu time spent up to now is      279.7 secs

     total energy              =    -275.98149962 Ry
     estimated scf accuracy    <       0.00019532 Ry

     iteration #  4     ecut=    90.00 Ry     beta= 0.70
     Davidson diagonalization with overlap
     ethr =  3.05E-07,  avg # of iterations =  2.1

     total cpu time spent up to now is      288.0 secs

     total energy              =    -275.98153367 Ry
     estimated scf accuracy    <       0.00001354 Ry

     iteration #  5     ecut=    90.00 Ry     beta= 0.70
     Davidson diagonalization with overlap
     ethr =  2.12E-08,  avg # of iterations =  2.5

     total cpu time spent up to now is      297.4 secs

     total energy              =    -275.98153764 Ry
     estimated scf accuracy    <       0.00000148 Ry

     iteration #  6     ecut=    90.00 Ry     beta= 0.70
     Davidson diagonalization with overlap
     ethr =  2.31E-09,  avg # of iterations =  2.0

     total cpu time spent up to now is      305.5 secs

     total energy              =    -275.98153775 Ry
     estimated scf accuracy    <       0.00000015 Ry

     iteration #  7     ecut=    90.00 Ry     beta= 0.70
     Davidson diagonalization with overlap
     ethr =  2.38E-10,  avg # of iterations =  3.5

     total cpu time spent up to now is      316.3 secs

     End of self-consistent calculation

     Number of k-points >= 100: set verbosity='high' to print the bands.

     highest occupied level (ev):    -2.2919

!    total energy              =    -275.98153777 Ry
     estimated scf accuracy    <       0.00000009 Ry

     The total energy is the sum of the following terms:
     one-electron contribution =    -212.36276032 Ry
     hartree contribution      =     129.09244226 Ry
     xc contribution           =     -67.63435291 Ry
     ewald contribution        =    -125.07686679 Ry

     convergence has been achieved in   7 iterations

     Forces acting on atoms (cartesian axes, Ry/au):

     atom    1 type  2   force =     0.00000000   -0.02094517    0.03220207
     atom    2 type  2   force =     0.00000000    0.02094505    0.03220130
     atom    3 type  2   force =     0.00000000   -0.02094521    0.03220233
     atom    4 type  2   force =     0.00000000    0.02094508    0.03220184
     atom    5 type  2   force =     0.00000000   -0.04118571    0.04729287
     atom    6 type  2   force =     0.00000000    0.04118582    0.04729296
     atom    7 type  2   force =     0.00000000   -0.04118542    0.04729275
     atom    8 type  2   force =     0.00000000    0.04118537    0.04729275
     atom    9 type  1   force =     0.00000000    0.01116440   -0.02139213
     atom   10 type  1   force =     0.00000000   -0.01116423   -0.02139172
     atom   11 type  1   force =     0.00000000    0.01116448   -0.02139209
     atom   12 type  1   force =     0.00000000   -0.01116440   -0.02139175
     atom   13 type  1   force =     0.00000000    0.01930976   -0.01248303
     atom   14 type  1   force =     0.00000000   -0.01930989   -0.01248282
     atom   15 type  1   force =     0.00000000    0.01930965   -0.01248318
     atom   16 type  1   force =     0.00000000   -0.01930964   -0.01248310
     atom   17 type  1   force =    -0.02643670    0.01717068   -0.02280991
     atom   18 type  1   force =     0.02643673   -0.01717069   -0.02280993
     atom   19 type  1   force =    -0.02643673   -0.01717069   -0.02280993
     atom   20 type  1   force =     0.02643670    0.01717068   -0.02280991
     atom   21 type  1   force =    -0.02643658    0.01717057   -0.02280983
     atom   22 type  1   force =     0.02643653   -0.01717054   -0.02280986
     atom   23 type  1   force =    -0.02643653   -0.01717054   -0.02280986
     atom   24 type  1   force =     0.02643658    0.01717057   -0.02280983

     Total force =     0.195423     Total SCF correction =     0.000293


     Computing stress (Cartesian axis) and pressure

          total   stress  (Ry/bohr**3)                   (kbar)     P=      -19.99
  -0.00021298   0.00000000   0.00000000          -31.33        0.00        0.00
   0.00000000  -0.00010374   0.00000000            0.00      -15.26        0.00
   0.00000000   0.00000000  -0.00009091            0.00        0.00      -13.37

     Energy error            =      7.6E-02 Ry
     Gradient error          =      4.7E-02 Ry/Bohr

     number of scf cycles    =   3
     number of bfgs steps    =   2

     energy             old  =    -275.9052684220 Ry
     energy             new  =    -275.9815377656 Ry

     CASE: energy            _new < energy            _old

     new trust radius        =       0.1047866380 bohr
     new conv_thr            =       0.0000001000 Ry


ATOMIC_POSITIONS (crystal)
O                0.0000000000        0.6677225137        0.0589829297
O                0.0000000000        0.3322775199        0.5589829549
O                0.5000000000        0.1677225562        0.0589828962
O                0.5000000000        0.8322774399        0.5589829013
O                0.5000000000        0.8328106999        0.9332249956
O                0.5000000000        0.1671893049        0.4332249682
O                0.0000000000        0.3328106971        0.9332250042
O                0.0000000000        0.6671893071        0.4332249453
H                0.0000000000        0.6654661710        0.2050891412
H                0.0000000000        0.3345338502        0.7050892447
H                0.5000000000        0.1654661895        0.2050890779
H                0.5000000000        0.8345338098        0.7050891301
H                0.0000000000        0.5341147810        0.0137893618
H                0.0000000000        0.4658852382        0.5137893811
H                0.5000000000        0.0341148197        0.0137893503
H                0.5000000000        0.9658851674        0.5137893620
H                0.6936820049        0.7699900612        0.9834568007
H                0.3063180113        0.2300099230        0.4834568014
H                0.6936819887        0.2300099230        0.4834568014
H                0.3063179951        0.7699900612        0.9834568007
H                0.1936820219        0.2699900515        0.9834568079
H                0.8063179938        0.7300099315        0.4834568009
H                0.1936820062        0.7300099315        0.4834568009
H                0.8063179781        0.2699900515        0.9834568079



     Writing config-only to output data dir ./iceIh/iceIh.save/ :
     XML data file
     NEW-OLD atomic charge density approx. for the potential

     total cpu time spent up to now is      324.4 secs

     per-process dynamical memory:    57.5 Mb

     Self-consistent Calculation

     iteration #  1     ecut=    90.00 Ry     beta= 0.70
     Davidson diagonalization with overlap
     ethr =  1.00E-06,  avg # of iterations =  9.7

     total cpu time spent up to now is      348.5 secs

     total energy              =    -275.99690070 Ry
     estimated scf accuracy    <       0.02168970 Ry

     iteration #  2     ecut=    90.00 Ry     beta= 0.70
     Davidson diagonalization with overlap
     ethr =  3.39E-05,  avg # of iterations =  3.0

     total cpu time spent up to now is      358.3 secs

     total energy              =    -276.00252196 Ry
     estimated scf accuracy    <       0.00449527 Ry

     iteration #  3     ecut=    90.00 Ry     beta= 0.70
     Davidson diagonalization with overlap
     ethr =  7.02E-06,  avg # of iterations =  2.0

     total cpu time spent up to now is      366.2 secs

     total energy              =    -276.00315306 Ry
     estimated scf accuracy    <       0.00016734 Ry

     iteration #  4     ecut=    90.00 Ry     beta= 0.70
     Davidson diagonalization with overlap
     ethr =  2.61E-07,  avg # of iterations =  3.0

     total cpu time spent up to now is      376.8 secs

     total energy              =    -276.00322659 Ry
     estimated scf accuracy    <       0.00007333 Ry

     iteration #  5     ecut=    90.00 Ry     beta= 0.70
     Davidson diagonalization with overlap
     ethr =  1.15E-07,  avg # of iterations =  2.2

     total cpu time spent up to now is      385.4 secs

     total energy              =    -276.00323696 Ry
     estimated scf accuracy    <       0.00001016 Ry

     iteration #  6     ecut=    90.00 Ry     beta= 0.70
     Davidson diagonalization with overlap
     ethr =  1.59E-08,  avg # of iterations =  3.0

     total cpu time spent up to now is      395.9 secs

     total energy              =    -276.00323891 Ry
     estimated scf accuracy    <       0.00000547 Ry

     iteration #  7     ecut=    90.00 Ry     beta= 0.70
     Davidson diagonalization with overlap
     ethr =  8.55E-09,  avg # of iterations =  2.0

     total cpu time spent up to now is      404.9 secs

     total energy              =    -276.00324046 Ry
     estimated scf accuracy    <       0.00000012 Ry

     iteration #  8     ecut=    90.00 Ry     beta= 0.70
     Davidson diagonalization with overlap
     ethr =  1.89E-10,  avg # of iterations =  3.1

     total cpu time spent up to now is      414.6 secs

     total energy              =    -276.00324042 Ry
     estimated scf accuracy    <       0.00000017 Ry

     iteration #  9     ecut=    90.00 Ry     beta= 0.70
     Davidson diagonalization with overlap
     ethr =  1.89E-10,  avg # of iterations =  2.1

     total cpu time spent up to now is      423.7 secs

     End of self-consistent calculation

     Number of k-points >= 100: set verbosity='high' to print the bands.

     highest occupied level (ev):    -2.4323

!    total energy              =    -276.00324045 Ry
     estimated scf accuracy    <          1.1E-09 Ry

     The total energy is the sum of the following terms:
     one-electron contribution =    -216.81651813 Ry
     hartree contribution      =     131.09609826 Ry
     xc contribution           =     -68.07854656 Ry
     ewald contribution        =    -122.20427401 Ry

     convergence has been achieved in   9 iterations

     Forces acting on atoms (cartesian axes, Ry/au):

     atom    1 type  2   force =     0.00000000   -0.01282889   -0.01759401
     atom    2 type  2   force =     0.00000000    0.01282874   -0.01759323
     atom    3 type  2   force =     0.00000000   -0.01282897   -0.01759413
     atom    4 type  2   force =     0.00000000    0.01282890   -0.01759364
     atom    5 type  2   force =     0.00000000    0.03030578   -0.01304635
     atom    6 type  2   force =     0.00000000   -0.03030584   -0.01304633
     atom    7 type  2   force =     0.00000000    0.03030564   -0.01304627
     atom    8 type  2   force =     0.00000000   -0.03030558   -0.01304617
     atom    9 type  1   force =     0.00000000    0.00140058    0.01237429
     atom   10 type  1   force =     0.00000000   -0.00140056    0.01237356
     atom   11 type  1   force =     0.00000000    0.00140062    0.01237455
     atom   12 type  1   force =     0.00000000   -0.00140062    0.01237412
     atom   13 type  1   force =     0.00000000    0.01218590    0.00057151
     atom   14 type  1   force =     0.00000000   -0.01218584    0.00057149
     atom   15 type  1   force =     0.00000000    0.01218583    0.00057144
     atom   16 type  1   force =     0.00000000   -0.01218579    0.00057141
     atom   17 type  1   force =     0.01196088   -0.01571629    0.00884725
     atom   18 type  1   force =    -0.01196094    0.01571634    0.00884727
     atom   19 type  1   force =     0.01196094    0.01571634    0.00884727
     atom   20 type  1   force =    -0.01196088   -0.01571629    0.00884725
     atom   21 type  1   force =     0.01196080   -0.01571622    0.00884720
     atom   22 type  1   force =    -0.01196080    0.01571621    0.00884717
     atom   23 type  1   force =     0.01196080    0.01571621    0.00884717
     atom   24 type  1   force =    -0.01196080   -0.01571622    0.00884720

     Total force =     0.105893     Total SCF correction =     0.000035


     Computing stress (Cartesian axis) and pressure

          total   stress  (Ry/bohr**3)                   (kbar)     P=       35.77
   0.00028641   0.00000000   0.00000000           42.13        0.00        0.00
   0.00000000   0.00014283  -0.00000000            0.00       21.01       -0.00
   0.00000000  -0.00000000   0.00030027            0.00       -0.00       44.17

     Energy error            =      2.2E-02 Ry
     Gradient error          =      3.0E-02 Ry/Bohr

     number of scf cycles    =   4
     number of bfgs steps    =   3

     energy             old  =    -275.9815377656 Ry
     energy             new  =    -276.0032404484 Ry

     CASE: energy            _new < energy            _old

     new trust radius        =       0.0313496448 bohr
     new conv_thr            =       0.0000001000 Ry


ATOMIC_POSITIONS (crystal)
O                0.0000000000        0.6675223874        0.0577183371
O                0.0000000000        0.3324776382        0.5577184141
O                0.5000000000        0.1675224254        0.0577182933
O                0.5000000000        0.8324775691        0.5577183313
O                0.5000000000        0.8347346792        0.9319567702
O                0.5000000000        0.1652653216        0.4319567426
O                0.0000000000        0.3347346654        0.9319567845
O                0.0000000000        0.6652653421        0.4319567308
H                0.0000000000        0.6653874269        0.2059976450
H                0.0000000000        0.3346125934        0.7059977037
H                0.5000000000        0.1653874463        0.2059975953
H                0.5000000000        0.8346125520        0.7059976197
H                0.0000000000        0.5343465009        0.0139502166
H                0.0000000000        0.4656535238        0.5139502317
H                0.5000000000        0.0343465385        0.0139502038
H                0.5000000000        0.9656534508        0.5139502127
H                0.6952018090        0.7690244271        0.9841885292
H                0.3047982020        0.2309755600        0.4841885308
H                0.6952017980        0.2309755600        0.4841885308
H                0.3047981910        0.7690244271        0.9841885292
H                0.1952018160        0.2690244223        0.9841885326
H                0.8047982012        0.7309755601        0.4841885241
H                0.1952017988        0.7309755601        0.4841885241
H                0.8047981840        0.2690244223        0.9841885326



     Writing config-only to output data dir ./iceIh/iceIh.save/ :
     XML data file
     NEW-OLD atomic charge density approx. for the potential

     total cpu time spent up to now is      431.7 secs

     per-process dynamical memory:    57.5 Mb

     Self-consistent Calculation

     iteration #  1     ecut=    90.00 Ry     beta= 0.70
     Davidson diagonalization with overlap
     ethr =  1.00E-06,  avg # of iterations =  5.0

     total cpu time spent up to now is      447.8 secs

     total energy              =    -276.00703992 Ry
     estimated scf accuracy    <       0.00199769 Ry

     iteration #  2     ecut=    90.00 Ry     beta= 0.70
     Davidson diagonalization with overlap
     ethr =  3.12E-06,  avg # of iterations =  3.0

     total cpu time spent up to now is      457.7 secs

     total energy              =    -276.00751503 Ry
     estimated scf accuracy    <       0.00047479 Ry

     iteration #  3     ecut=    90.00 Ry     beta= 0.70
     Davidson diagonalization with overlap
     ethr =  7.42E-07,  avg # of iterations =  2.4

     total cpu time spent up to now is      466.7 secs

     total energy              =    -276.00760871 Ry
     estimated scf accuracy    <       0.00001545 Ry

     iteration #  4     ecut=    90.00 Ry     beta= 0.70
     Davidson diagonalization with overlap
     ethr =  2.41E-08,  avg # of iterations =  3.0

     total cpu time spent up to now is      476.9 secs

     total energy              =    -276.00761333 Ry
     estimated scf accuracy    <       0.00000532 Ry

     iteration #  5     ecut=    90.00 Ry     beta= 0.70
     Davidson diagonalization with overlap
     ethr =  8.31E-09,  avg # of iterations =  2.0

     total cpu time spent up to now is      485.6 secs

     total energy              =    -276.00761412 Ry
     estimated scf accuracy    <       0.00000054 Ry

     iteration #  6     ecut=    90.00 Ry     beta= 0.70
     Davidson diagonalization with overlap
     ethr =  8.38E-10,  avg # of iterations =  3.4

     total cpu time spent up to now is      496.2 secs

     total energy              =    -276.00761424 Ry
     estimated scf accuracy    <       0.00000026 Ry

     iteration #  7     ecut=    90.00 Ry     beta= 0.70
     Davidson diagonalization with overlap
     ethr =  4.11E-10,  avg # of iterations =  2.4

     total cpu time spent up to now is      505.6 secs

     End of self-consistent calculation

     Number of k-points >= 100: set verbosity='high' to print the bands.

     highest occupied level (ev):    -2.4126

!    total energy              =    -276.00761431 Ry
     estimated scf accuracy    <          7.3E-09 Ry

     The total energy is the sum of the following terms:
     one-electron contribution =    -215.61926064 Ry
     hartree contribution      =     130.55776772 Ry
     xc contribution           =     -67.95840147 Ry
     ewald contribution        =    -122.98771992 Ry

     convergence has been achieved in   7 iterations

     Forces acting on atoms (cartesian axes, Ry/au):

     atom    1 type  2   force =     0.00000000   -0.00212759    0.00292224
     atom    2 type  2   force =     0.00000000    0.00212767    0.00292191
     atom    3 type  2   force =     0.00000000   -0.00212762    0.00292236
     atom    4 type  2   force =     0.00000000    0.00212765    0.00292217
     atom    5 type  2   force =     0.00000000    0.00120695    0.00580758
     atom    6 type  2   force =     0.00000000   -0.00120694    0.00580761
     atom    7 type  2   force =     0.00000000    0.00120701    0.00580758
     atom    8 type  2   force =     0.00000000   -0.00120705    0.00580759
     atom    9 type  1   force =     0.00000000    0.00233550   -0.00127645
     atom   10 type  1   force =     0.00000000   -0.00233546   -0.00127631
     atom   11 type  1   force =     0.00000000    0.00233554   -0.00127640
     atom   12 type  1   force =     0.00000000   -0.00233551   -0.00127629
     atom   13 type  1   force =     0.00000000    0.00402197   -0.00404215
     atom   14 type  1   force =     0.00000000   -0.00402214   -0.00404205
     atom   15 type  1   force =     0.00000000    0.00402189   -0.00404222
     atom   16 type  1   force =     0.00000000   -0.00402194   -0.00404218
     atom   17 type  1   force =    -0.00395012   -0.00282762   -0.00170563
     atom   18 type  1   force =     0.00395011    0.00282763   -0.00170562
     atom   19 type  1   force =    -0.00395011    0.00282763   -0.00170562
     atom   20 type  1   force =     0.00395012   -0.00282762   -0.00170563
     atom   21 type  1   force =    -0.00395010   -0.00282763   -0.00170562
     atom   22 type  1   force =     0.00395006    0.00282766   -0.00170563
     atom   23 type  1   force =    -0.00395006    0.00282766   -0.00170563
     atom   24 type  1   force =     0.00395010   -0.00282763   -0.00170562

     Total force =     0.023737     Total SCF correction =     0.000137


     Computing stress (Cartesian axis) and pressure

          total   stress  (Ry/bohr**3)                   (kbar)     P=       19.51
   0.00010023   0.00000000   0.00000000           14.74        0.00        0.00
   0.00000000   0.00013415   0.00000000            0.00       19.73        0.00
   0.00000000   0.00000000   0.00016343            0.00        0.00       24.04

     Energy error            =      4.4E-03 Ry
     Gradient error          =      5.8E-03 Ry/Bohr

     number of scf cycles    =   5
     number of bfgs steps    =   4

     energy             old  =    -276.0032404484 Ry
     energy             new  =    -276.0076143089 Ry

     CASE: energy            _new < energy            _old

     new trust radius        =       0.0062834770 bohr
     new conv_thr            =       0.0000000437 Ry


ATOMIC_POSITIONS (crystal)
O                0.0000000000        0.6673697129        0.0579397473
O                0.0000000000        0.3326303162        0.5579398039
O                0.5000000000        0.1673697478        0.0579397116
O                0.5000000000        0.8326302480        0.5579397380
O                0.5000000000        0.8348592481        0.9324209210
O                0.5000000000        0.1651407530        0.4324208956
O                0.0000000000        0.3348592382        0.9324209357
O                0.0000000000        0.6651407668        0.4324208828
H                0.0000000000        0.6655733775        0.2059304052
H                0.0000000000        0.3344266467        0.7059304702
H                0.5000000000        0.1655733995        0.2059303609
H                0.5000000000        0.8344266005        0.7059303916
H                0.0000000000        0.5346459994        0.0136091250
H                0.0000000000        0.4653540147        0.5136091475
H                0.5000000000        0.0346460315        0.0136091064
H                0.5000000000        0.9653539542        0.5136091182
H                0.6947437077        0.7687895817        0.9840499130
H                0.3052563021        0.2312104067        0.4840499152
H                0.6947436979        0.2312104067        0.4840499152
H                0.3052562923        0.7687895817        0.9840499130
H                0.1947437168        0.2687895761        0.9840499169
H                0.8052562954        0.7312104080        0.4840499075
H                0.1947437046        0.7312104080        0.4840499075
H                0.8052562832        0.2687895761        0.9840499169



     Writing config-only to output data dir ./iceIh/iceIh.save/ :
     XML data file
     NEW-OLD atomic charge density approx. for the potential

     total cpu time spent up to now is      513.7 secs

     per-process dynamical memory:    57.5 Mb

     Self-consistent Calculation

     iteration #  1     ecut=    90.00 Ry     beta= 0.70
     Davidson diagonalization with overlap
     ethr =  1.00E-06,  avg # of iterations =  3.0

     Threshold (ethr) on eigenvalues was too large:
     Diagonalizing with lowered threshold

     Davidson diagonalization with overlap
     ethr =  7.13E-08,  avg # of iterations =  2.0

     total cpu time spent up to now is      531.7 secs

     total energy              =    -276.00806723 Ry
     estimated scf accuracy    <       0.00004768 Ry

     iteration #  2     ecut=    90.00 Ry     beta= 0.70
     Davidson diagonalization with overlap
     ethr =  7.45E-08,  avg # of iterations =  2.0

     total cpu time spent up to now is      540.6 secs

     total energy              =    -276.00807763 Ry
     estimated scf accuracy    <       0.00000632 Ry

     iteration #  3     ecut=    90.00 Ry     beta= 0.70
     Davidson diagonalization with overlap
     ethr =  9.87E-09,  avg # of iterations =  2.0

     total cpu time spent up to now is      548.9 secs

     total energy              =    -276.00807875 Ry
     estimated scf accuracy    <       0.00000021 Ry

     iteration #  4     ecut=    90.00 Ry     beta= 0.70
     Davidson diagonalization with overlap
     ethr =  3.24E-10,  avg # of iterations =  3.1

     total cpu time spent up to now is      558.4 secs

     total energy              =    -276.00807879 Ry
     estimated scf accuracy    <       0.00000006 Ry

     iteration #  5     ecut=    90.00 Ry     beta= 0.70
     Davidson diagonalization with overlap
     ethr =  9.78E-11,  avg # of iterations =  3.0

     total cpu time spent up to now is      568.4 secs

     End of self-consistent calculation

     Number of k-points >= 100: set verbosity='high' to print the bands.

     highest occupied level (ev):    -2.4204

!    total energy              =    -276.00807880 Ry
     estimated scf accuracy    <       0.00000002 Ry

     The total energy is the sum of the following terms:
     one-electron contribution =    -215.80598308 Ry
     hartree contribution      =     130.64133620 Ry
     xc contribution           =     -67.97671073 Ry
     ewald contribution        =    -122.86672118 Ry

     convergence has been achieved in   5 iterations

     Forces acting on atoms (cartesian axes, Ry/au):

     atom    1 type  2   force =     0.00000000    0.00087873    0.00069221
     atom    2 type  2   force =     0.00000000   -0.00087881    0.00069222
     atom    3 type  2   force =     0.00000000    0.00087868    0.00069226
     atom    4 type  2   force =     0.00000000   -0.00087871    0.00069227
     atom    5 type  2   force =     0.00000000    0.00159555    0.00361030
     atom    6 type  2   force =     0.00000000   -0.00159554    0.00361035
     atom    7 type  2   force =     0.00000000    0.00159557    0.00361031
     atom    8 type  2   force =     0.00000000   -0.00159556    0.00361035
     atom    9 type  1   force =     0.00000000    0.00121188    0.00026711
     atom   10 type  1   force =     0.00000000   -0.00121185    0.00026703
     atom   11 type  1   force =     0.00000000    0.00121190    0.00026717
     atom   12 type  1   force =     0.00000000   -0.00121189    0.00026714
     atom   13 type  1   force =     0.00000000    0.00164105   -0.00313271
     atom   14 type  1   force =     0.00000000   -0.00164105   -0.00313269
     atom   15 type  1   force =     0.00000000    0.00164101   -0.00313275
     atom   16 type  1   force =     0.00000000   -0.00164100   -0.00313274
     atom   17 type  1   force =    -0.00228196   -0.00297217   -0.00071847
     atom   18 type  1   force =     0.00228196    0.00297218   -0.00071847
     atom   19 type  1   force =    -0.00228196    0.00297218   -0.00071847
     atom   20 type  1   force =     0.00228196   -0.00297217   -0.00071847
     atom   21 type  1   force =    -0.00228196   -0.00297217   -0.00071847
     atom   22 type  1   force =     0.00228195    0.00297217   -0.00071849
     atom   23 type  1   force =    -0.00228195    0.00297217   -0.00071849
     atom   24 type  1   force =     0.00228196   -0.00297217   -0.00071847

     Total force =     0.015491     Total SCF correction =     0.000078


     Computing stress (Cartesian axis) and pressure

          total   stress  (Ry/bohr**3)                   (kbar)     P=       21.85
   0.00011585   0.00000000   0.00000000           17.04        0.00        0.00
   0.00000000   0.00015426  -0.00000000            0.00       22.69       -0.00
   0.00000000  -0.00000000   0.00017546            0.00       -0.00       25.81

     Energy error            =      4.6E-04 Ry
     Gradient error          =      3.6E-03 Ry/Bohr

     number of scf cycles    =   6
     number of bfgs steps    =   5

     energy             old  =    -276.0076143089 Ry
     energy             new  =    -276.0080788037 Ry

     CASE: energy            _new < energy            _old

     new trust radius        =       0.0069118247 bohr
     new conv_thr            =       0.0000000046 Ry


ATOMIC_POSITIONS (crystal)
O                0.0000000000        0.6673854980        0.0580515170
O                0.0000000000        0.3326145234        0.5580515719
O                0.5000000000        0.1673855264        0.0580514879
O                0.5000000000        0.8326144662        0.5580515142
O                0.5000000000        0.8350780066        0.9328981482
O                0.5000000000        0.1649219958        0.4328981275
O                0.0000000000        0.3350779995        0.9328981634
O                0.0000000000        0.6649220061        0.4328981155
H                0.0000000000        0.6657460297        0.2059619401
H                0.0000000000        0.3342539982        0.7059619968
H                0.5000000000        0.1657460540        0.2059619040
H                0.5000000000        0.8342539475        0.7059619320
H                0.0000000000        0.5348997353        0.0131989421
H                0.0000000000        0.4651002766        0.5131989681
H                0.5000000000        0.0348997623        0.0131989181
H                0.5000000000        0.9651002235        0.5131989309
H                0.6942945972        0.7684306010        0.9839447366
H                0.3057054124        0.2315693891        0.4839447386
H                0.6942945876        0.2315693891        0.4839447386
H                0.3057054028        0.7684306010        0.9839447366
H                0.1942946069        0.2684305953        0.9839447405
H                0.8057054032        0.7315693900        0.4839447285
H                0.1942945968        0.7315693900        0.4839447285
H                0.8057053931        0.2684305953        0.9839447405



     Writing config-only to output data dir ./iceIh/iceIh.save/ :
     XML data file
     NEW-OLD atomic charge density approx. for the potential

     total cpu time spent up to now is      576.4 secs

     per-process dynamical memory:    57.5 Mb

     Self-consistent Calculation

     iteration #  1     ecut=    90.00 Ry     beta= 0.70
     Davidson diagonalization with overlap
     ethr =  1.00E-06,  avg # of iterations =  3.0

     Threshold (ethr) on eigenvalues was too large:
     Diagonalizing with lowered threshold

     Davidson diagonalization with overlap
     ethr =  4.69E-08,  avg # of iterations =  2.0

     total cpu time spent up to now is      594.1 secs

     total energy              =    -276.00839763 Ry
     estimated scf accuracy    <       0.00003275 Ry

     iteration #  2     ecut=    90.00 Ry     beta= 0.70
     Davidson diagonalization with overlap
     ethr =  5.12E-08,  avg # of iterations =  2.0

     total cpu time spent up to now is      602.4 secs

     total energy              =    -276.00840287 Ry
     estimated scf accuracy    <       0.00000191 Ry

     iteration #  3     ecut=    90.00 Ry     beta= 0.70
     Davidson diagonalization with overlap
     ethr =  2.99E-09,  avg # of iterations =  2.0

     total cpu time spent up to now is      611.3 secs

     total energy              =    -276.00840335 Ry
     estimated scf accuracy    <       0.00000021 Ry

     iteration #  4     ecut=    90.00 Ry     beta= 0.70
     Davidson diagonalization with overlap
     ethr =  3.35E-10,  avg # of iterations =  2.0

     total cpu time spent up to now is      618.7 secs

     total energy              =    -276.00840339 Ry
     estimated scf accuracy    <       0.00000001 Ry

     iteration #  5     ecut=    90.00 Ry     beta= 0.70
     Davidson diagonalization with overlap
     ethr =  2.06E-11,  avg # of iterations =  3.0

     total cpu time spent up to now is      628.2 secs

     End of self-consistent calculation

     Number of k-points >= 100: set verbosity='high' to print the bands.

     highest occupied level (ev):    -2.4252

!    total energy              =    -276.00840339 Ry
     estimated scf accuracy    <          3.4E-09 Ry

     The total energy is the sum of the following terms:
     one-electron contribution =    -215.88341646 Ry
     hartree contribution      =     130.67639454 Ry
     xc contribution           =     -67.98414981 Ry
     ewald contribution        =    -122.81723166 Ry

     convergence has been achieved in   5 iterations

     Forces acting on atoms (cartesian axes, Ry/au):

     atom    1 type  2   force =     0.00000000    0.00207198   -0.00017053
     atom    2 type  2   force =     0.00000000   -0.00207199   -0.00017057
     atom    3 type  2   force =     0.00000000    0.00207193   -0.00017050
     atom    4 type  2   force =     0.00000000   -0.00207192   -0.00017052
     atom    5 type  2   force =     0.00000000    0.00096317    0.00196729
     atom    6 type  2   force =     0.00000000   -0.00096318    0.00196731
     atom    7 type  2   force =     0.00000000    0.00096318    0.00196730
     atom    8 type  2   force =     0.00000000   -0.00096319    0.00196732
     atom    9 type  1   force =     0.00000000    0.00034239    0.00037323
     atom   10 type  1   force =     0.00000000   -0.00034238    0.00037321
     atom   11 type  1   force =     0.00000000    0.00034238    0.00037328
     atom   12 type  1   force =     0.00000000   -0.00034238    0.00037327
     atom   13 type  1   force =     0.00000000    0.00060972   -0.00196209
     atom   14 type  1   force =     0.00000000   -0.00060975   -0.00196209
     atom   15 type  1   force =     0.00000000    0.00060970   -0.00196210
     atom   16 type  1   force =     0.00000000   -0.00060971   -0.00196210
     atom   17 type  1   force =    -0.00091533   -0.00246553   -0.00010396
     atom   18 type  1   force =     0.00091533    0.00246555   -0.00010395
     atom   19 type  1   force =    -0.00091533    0.00246555   -0.00010395
     atom   20 type  1   force =     0.00091533   -0.00246553   -0.00010396
     atom   21 type  1   force =    -0.00091534   -0.00246553   -0.00010396
     atom   22 type  1   force =     0.00091533    0.00246554   -0.00010397
     atom   23 type  1   force =    -0.00091533    0.00246554   -0.00010397
     atom   24 type  1   force =     0.00091534   -0.00246553   -0.00010396

     Total force =     0.010479     Total SCF correction =     0.000086


     Computing stress (Cartesian axis) and pressure

          total   stress  (Ry/bohr**3)                   (kbar)     P=       22.88
   0.00012825   0.00000000   0.00000000           18.87        0.00        0.00
   0.00000000   0.00016332  -0.00000000            0.00       24.02       -0.00
   0.00000000  -0.00000000   0.00017497            0.00       -0.00       25.74

     Energy error            =      3.2E-04 Ry
     Gradient error          =      2.5E-03 Ry/Bohr

     number of scf cycles    =   7
     number of bfgs steps    =   6

     energy             old  =    -276.0080788037 Ry
     energy             new  =    -276.0084033899 Ry

     CASE: energy            _new < energy            _old

     new trust radius        =       0.0103677371 bohr
     new conv_thr            =       0.0000000032 Ry


ATOMIC_POSITIONS (crystal)
O                0.0000000000        0.6675969733        0.0581402559
O                0.0000000000        0.3324030456        0.5581402931
O                0.5000000000        0.1675969898        0.0581402373
O                0.5000000000        0.8324030030        0.5581402547
O                0.5000000000        0.8354134731        0.9336101294
O                0.5000000000        0.1645865287        0.4336101149
O                0.0000000000        0.3354134701        0.9336101474
O                0.0000000000        0.6645865323        0.4336101052
H                0.0000000000        0.6659589950        0.2060221944
H                0.0000000000        0.3340410369        0.7060222476
H                0.5000000000        0.1659590206        0.2060221720
H                0.5000000000        0.8340409826        0.7060222008
H                0.0000000000        0.5352745425        0.0125579866
H                0.0000000000        0.4647254576        0.5125580193
H                0.5000000000        0.0352745618        0.0125579563
H                0.5000000000        0.9647254201        0.5125579719
H                0.6937089204        0.7677751693        0.9838347236
H                0.3062910866        0.2322248249        0.4838347269
H                0.6937089134        0.2322248249        0.4838347269
H                0.3062910796        0.7677751693        0.9838347236
H                0.1937089288        0.2677751642        0.9838347268
H                0.8062910743        0.7322248251        0.4838347123
H                0.1937089257        0.7322248251        0.4838347123
H                0.8062910712        0.2677751642        0.9838347268



     Writing config-only to output data dir ./iceIh/iceIh.save/ :
     XML data file
     NEW-OLD atomic charge density approx. for the potential

     total cpu time spent up to now is      636.2 secs

     per-process dynamical memory:    57.5 Mb

     Self-consistent Calculation

     iteration #  1     ecut=    90.00 Ry     beta= 0.70
     Davidson diagonalization with overlap
     ethr =  1.00E-06,  avg # of iterations =  3.8

     total cpu time spent up to now is      648.4 secs

     total energy              =    -276.00863169 Ry
     estimated scf accuracy    <       0.00006820 Ry

     iteration #  2     ecut=    90.00 Ry     beta= 0.70
     Davidson diagonalization with overlap
     ethr =  1.07E-07,  avg # of iterations =  2.0

     total cpu time spent up to now is      656.0 secs

     total energy              =    -276.00864217 Ry
     estimated scf accuracy    <       0.00000405 Ry

     iteration #  3     ecut=    90.00 Ry     beta= 0.70
     Davidson diagonalization with overlap
     ethr =  6.32E-09,  avg # of iterations =  3.0

     total cpu time spent up to now is      665.9 secs

     total energy              =    -276.00864339 Ry
     estimated scf accuracy    <       0.00000130 Ry

     iteration #  4     ecut=    90.00 Ry     beta= 0.70
     Davidson diagonalization with overlap
     ethr =  2.04E-09,  avg # of iterations =  3.0

     total cpu time spent up to now is      674.8 secs

     total energy              =    -276.00864368 Ry
     estimated scf accuracy    <       0.00000010 Ry

     iteration #  5     ecut=    90.00 Ry     beta= 0.70
     Davidson diagonalization with overlap
     ethr =  1.59E-10,  avg # of iterations =  2.4

     total cpu time spent up to now is      684.1 secs

     total energy              =    -276.00864370 Ry
     estimated scf accuracy    <       0.00000002 Ry

     iteration #  6     ecut=    90.00 Ry     beta= 0.70
     Davidson diagonalization with overlap
     ethr =  3.60E-11,  avg # of iterations =  2.0

     total cpu time spent up to now is      691.6 secs

     End of self-consistent calculation

     Number of k-points >= 100: set verbosity='high' to print the bands.

     highest occupied level (ev):    -2.4301

!    total energy              =    -276.00864370 Ry
     estimated scf accuracy    <          2.1E-09 Ry

     The total energy is the sum of the following terms:
     one-electron contribution =    -215.90617786 Ry
     hartree contribution      =     130.68662808 Ry
     xc contribution           =     -67.98596901 Ry
     ewald contribution        =    -122.80312491 Ry

     convergence has been achieved in   6 iterations

     Forces acting on atoms (cartesian axes, Ry/au):

     atom    1 type  2   force =     0.00000000    0.00192077   -0.00100838
     atom    2 type  2   force =     0.00000000   -0.00192089   -0.00100820
     atom    3 type  2   force =     0.00000000    0.00192075   -0.00100838
     atom    4 type  2   force =     0.00000000   -0.00192080   -0.00100828
     atom    5 type  2   force =     0.00000000   -0.00076013    0.00024307
     atom    6 type  2   force =     0.00000000    0.00076014    0.00024311
     atom    7 type  2   force =     0.00000000   -0.00076012    0.00024307
     atom    8 type  2   force =     0.00000000    0.00076016    0.00024312
     atom    9 type  1   force =     0.00000000   -0.00058500    0.00001493
     atom   10 type  1   force =     0.00000000    0.00058497    0.00001479
     atom   11 type  1   force =     0.00000000   -0.00058503    0.00001494
     atom   12 type  1   force =     0.00000000    0.00058502    0.00001485
     atom   13 type  1   force =     0.00000000    0.00027030   -0.00009749
     atom   14 type  1   force =     0.00000000   -0.00027020   -0.00009756
     atom   15 type  1   force =     0.00000000    0.00027029   -0.00009746
     atom   16 type  1   force =     0.00000000   -0.00027024   -0.00009749
     atom   17 type  1   force =     0.00055872   -0.00107248    0.00042393
     atom   18 type  1   force =    -0.00055871    0.00107248    0.00042392
     atom   19 type  1   force =     0.00055871    0.00107248    0.00042392
     atom   20 type  1   force =    -0.00055872   -0.00107248    0.00042393
     atom   21 type  1   force =     0.00055872   -0.00107247    0.00042393
     atom   22 type  1   force =    -0.00055869    0.00107247    0.00042391
     atom   23 type  1   force =     0.00055869    0.00107247    0.00042391
     atom   24 type  1   force =    -0.00055872   -0.00107247    0.00042393

     Total force =     0.006017     Total SCF correction =     0.000155


     Computing stress (Cartesian axis) and pressure

          total   stress  (Ry/bohr**3)                   (kbar)     P=       23.17
   0.00014174   0.00000000   0.00000000           20.85        0.00        0.00
   0.00000000   0.00016423  -0.00000000            0.00       24.16       -0.00
   0.00000000  -0.00000000   0.00016663            0.00       -0.00       24.51

     Energy error            =      2.4E-04 Ry
     Gradient error          =      1.9E-03 Ry/Bohr

     number of scf cycles    =   8
     number of bfgs steps    =   7

     energy             old  =    -276.0084033899 Ry
     energy             new  =    -276.0086436992 Ry

     CASE: energy            _new < energy            _old

     new trust radius        =       0.0029122901 bohr
     new conv_thr            =       0.0000000024 Ry


ATOMIC_POSITIONS (crystal)
O                0.0000000000        0.6677485134        0.0580858424
O                0.0000000000        0.3322514957        0.5580858902
O                0.5000000000        0.1677485267        0.0580858266
O                0.5000000000        0.8322514623        0.5580858503
O                0.5000000000        0.8354131263        0.9337844438
O                0.5000000000        0.1645868768        0.4337844333
O                0.0000000000        0.3354131251        0.9337844618
O                0.0000000000        0.6645868795        0.4337844249
H                0.0000000000        0.6659626900        0.2060199644
H                0.0000000000        0.3340373408        0.7060200059
H                0.5000000000        0.1659627136        0.2060199455
H                0.5000000000        0.8340372893        0.7060199676
H                0.0000000000        0.5354001328        0.0124242628
H                0.0000000000        0.4645998726        0.5124242916
H                0.5000000000        0.0354001491        0.0124242334
H                0.5000000000        0.9645998359        0.5124242473
H                0.6936535290        0.7675675091        0.9838427485
H                0.3063464792        0.2324324861        0.4838427516
H                0.6936535208        0.2324324861        0.4838427516
H                0.3063464710        0.7675675091        0.9838427485
H                0.1936535364        0.2675675042        0.9838427517
H                0.8063464688        0.7324324856        0.4838427353
H                0.1936535312        0.7324324856        0.4838427353
H                0.8063464636        0.2675675042        0.9838427517



     Writing config-only to output data dir ./iceIh/iceIh.save/ :
     XML data file
     NEW-OLD atomic charge density approx. for the potential

     total cpu time spent up to now is      699.6 secs

     per-process dynamical memory:    57.5 Mb

     Self-consistent Calculation

     iteration #  1     ecut=    90.00 Ry     beta= 0.70
     Davidson diagonalization with overlap
     ethr =  1.00E-06,  avg # of iterations =  2.0

     Threshold (ethr) on eigenvalues was too large:
     Diagonalizing with lowered threshold

     Davidson diagonalization with overlap
     ethr =  9.85E-09,  avg # of iterations =  3.0

     total cpu time spent up to now is      718.2 secs

     total energy              =    -276.00867684 Ry
     estimated scf accuracy    <       0.00000893 Ry

     iteration #  2     ecut=    90.00 Ry     beta= 0.70
     Davidson diagonalization with overlap
     ethr =  1.40E-08,  avg # of iterations =  3.0

     total cpu time spent up to now is      727.9 secs

     total energy              =    -276.00867828 Ry
     estimated scf accuracy    <       0.00000320 Ry

     iteration #  3     ecut=    90.00 Ry     beta= 0.70
     Davidson diagonalization with overlap
     ethr =  5.00E-09,  avg # of iterations =  3.0

     total cpu time spent up to now is      737.4 secs

     total energy              =    -276.00867917 Ry
     estimated scf accuracy    <       0.00000021 Ry

     iteration #  4     ecut=    90.00 Ry     beta= 0.70
     Davidson diagonalization with overlap
     ethr =  3.33E-10,  avg # of iterations =  2.2

     total cpu time spent up to now is      744.9 secs

     total energy              =    -276.00867919 Ry
     estimated scf accuracy    <       0.00000003 Ry

     iteration #  5     ecut=    90.00 Ry     beta= 0.70
     Davidson diagonalization with overlap
     ethr =  4.42E-11,  avg # of iterations =  3.2

     total cpu time spent up to now is      755.3 secs

     total energy              =    -276.00867920 Ry
     estimated scf accuracy    <          6.9E-09 Ry

     iteration #  6     ecut=    90.00 Ry     beta= 0.70
     Davidson diagonalization with overlap
     ethr =  1.08E-11,  avg # of iterations =  2.0

     total cpu time spent up to now is      763.0 secs

     End of self-consistent calculation

     Number of k-points >= 100: set verbosity='high' to print the bands.

     highest occupied level (ev):    -2.4307

!    total energy              =    -276.00867920 Ry
     estimated scf accuracy    <          6.4E-10 Ry

     The total energy is the sum of the following terms:
     one-electron contribution =    -215.88197734 Ry
     hartree contribution      =     130.67579995 Ry
     xc contribution           =     -67.98348097 Ry
     ewald contribution        =    -122.81902084 Ry

     convergence has been achieved in   6 iterations

     Forces acting on atoms (cartesian axes, Ry/au):

     atom    1 type  2   force =     0.00000000    0.00108973   -0.00057414
     atom    2 type  2   force =     0.00000000   -0.00108967   -0.00057423
     atom    3 type  2   force =     0.00000000    0.00108971   -0.00057414
     atom    4 type  2   force =     0.00000000   -0.00108968   -0.00057420
     atom    5 type  2   force =     0.00000000   -0.00105965   -0.00008993
     atom    6 type  2   force =     0.00000000    0.00105963   -0.00008993
     atom    7 type  2   force =     0.00000000   -0.00105964   -0.00008992
     atom    8 type  2   force =     0.00000000    0.00105962   -0.00008993
     atom    9 type  1   force =     0.00000000   -0.00049909   -0.00037468
     atom   10 type  1   force =     0.00000000    0.00049906   -0.00037463
     atom   11 type  1   force =     0.00000000   -0.00049912   -0.00037466
     atom   12 type  1   force =     0.00000000    0.00049911   -0.00037464
     atom   13 type  1   force =     0.00000000    0.00045534    0.00018118
     atom   14 type  1   force =     0.00000000   -0.00045540    0.00018117
     atom   15 type  1   force =     0.00000000    0.00045534    0.00018121
     atom   16 type  1   force =     0.00000000   -0.00045536    0.00018121
     atom   17 type  1   force =     0.00064462   -0.00062525    0.00042878
     atom   18 type  1   force =    -0.00064463    0.00062526    0.00042879
     atom   19 type  1   force =     0.00064463    0.00062526    0.00042879
     atom   20 type  1   force =    -0.00064462   -0.00062525    0.00042878
     atom   21 type  1   force =     0.00064461   -0.00062525    0.00042878
     atom   22 type  1   force =    -0.00064462    0.00062526    0.00042879
     atom   23 type  1   force =     0.00064462    0.00062526    0.00042879
     atom   24 type  1   force =    -0.00064461   -0.00062525    0.00042878

     Total force =     0.004586     Total SCF correction =     0.000025


     Computing stress (Cartesian axis) and pressure

          total   stress  (Ry/bohr**3)                   (kbar)     P=       22.87
   0.00014489   0.00000000   0.00000000           21.31        0.00        0.00
   0.00000000   0.00016097   0.00000000            0.00       23.68        0.00
   0.00000000   0.00000000   0.00016061            0.00        0.00       23.63

     Energy error            =      3.6E-05 Ry
     Gradient error          =      1.1E-03 Ry/Bohr

     number of scf cycles    =   9
     number of bfgs steps    =   8

     energy             old  =    -276.0086436992 Ry
     energy             new  =    -276.0086792021 Ry

     CASE: energy            _new < energy            _old

     new trust radius        =       0.0032035191 bohr
     new conv_thr            =       0.0000000010 Ry


ATOMIC_POSITIONS (crystal)
O                0.0000000000        0.6679493598        0.0579989876
O                0.0000000000        0.3320506526        0.5579990247
O                0.5000000000        0.1679493687        0.0579989735
O                0.5000000000        0.8320506229        0.5579989907
O                0.5000000000        0.8352961143        0.9339201048
O                0.5000000000        0.1647038877        0.4339200961
O                0.0000000000        0.3352961151        0.9339201246
O                0.0000000000        0.6647038870        0.4339200891
H                0.0000000000        0.6659219298        0.2059598976
H                0.0000000000        0.3340780972        0.7059599408
H                0.5000000000        0.1659219483        0.2059598831
H                0.5000000000        0.8340780533        0.7059599057
H                0.0000000000        0.5355668839        0.0123364715
H                0.0000000000        0.4644331160        0.5123364982
H                0.5000000000        0.0355668977        0.0123364462
H                0.5000000000        0.9644330858        0.5123364601
H                0.6937096066        0.7673432991        0.9838922729
H                0.3062904002        0.2326566983        0.4838922775
H                0.6937095998        0.2326566983        0.4838922775
H                0.3062903934        0.7673432991        0.9838922729
H                0.1937096112        0.2673432951        0.9838922758
H                0.8062903917        0.7326566975        0.4838922597
H                0.1937096083        0.7326566975        0.4838922597
H                0.8062903888        0.2673432951        0.9838922758



     Writing config-only to output data dir ./iceIh/iceIh.save/ :
     XML data file
     NEW-OLD atomic charge density approx. for the potential

     total cpu time spent up to now is      771.0 secs

     per-process dynamical memory:    57.5 Mb

     Self-consistent Calculation

     iteration #  1     ecut=    90.00 Ry     beta= 0.70
     Davidson diagonalization with overlap
     ethr =  1.00E-06,  avg # of iterations =  2.0

     Threshold (ethr) on eigenvalues was too large:
     Diagonalizing with lowered threshold

     Davidson diagonalization with overlap
     ethr =  1.83E-08,  avg # of iterations =  3.0

     total cpu time spent up to now is      789.4 secs

     total energy              =    -276.00870745 Ry
     estimated scf accuracy    <       0.00001425 Ry

     iteration #  2     ecut=    90.00 Ry     beta= 0.70
     Davidson diagonalization with overlap
     ethr =  2.23E-08,  avg # of iterations =  3.0

     total cpu time spent up to now is      799.4 secs

     total energy              =    -276.00870984 Ry
     estimated scf accuracy    <       0.00000829 Ry

     iteration #  3     ecut=    90.00 Ry     beta= 0.70
     Davidson diagonalization with overlap
     ethr =  1.30E-08,  avg # of iterations =  3.0

     total cpu time spent up to now is      808.3 secs

     total energy              =    -276.00871185 Ry
     estimated scf accuracy    <       0.00000014 Ry

     iteration #  4     ecut=    90.00 Ry     beta= 0.70
     Davidson diagonalization with overlap
     ethr =  2.12E-10,  avg # of iterations =  5.0

     total cpu time spent up to now is      820.4 secs

     total energy              =    -276.00871185 Ry
     estimated scf accuracy    <       0.00000019 Ry

     iteration #  5     ecut=    90.00 Ry     beta= 0.70
     Davidson diagonalization with overlap
     ethr =  2.12E-10,  avg # of iterations =  4.0

     total cpu time spent up to now is      831.5 secs

     total energy              =    -276.00871192 Ry
     estimated scf accuracy    <       0.00000006 Ry

     iteration #  6     ecut=    90.00 Ry     beta= 0.70
     Davidson diagonalization with overlap
     ethr =  9.57E-11,  avg # of iterations =  2.0

     total cpu time spent up to now is      839.1 secs

     total energy              =    -276.00871192 Ry
     estimated scf accuracy    <          6.0E-09 Ry

     iteration #  7     ecut=    90.00 Ry     beta= 0.70
     Davidson diagonalization with overlap
     ethr =  9.42E-12,  avg # of iterations =  3.9

     total cpu time spent up to now is      849.3 secs

     End of self-consistent calculation

     Number of k-points >= 100: set verbosity='high' to print the bands.

     highest occupied level (ev):    -2.4316

!    total energy              =    -276.00871192 Ry
     estimated scf accuracy    <          1.9E-10 Ry

     The total energy is the sum of the following terms:
     one-electron contribution =    -215.85343401 Ry
     hartree contribution      =     130.66284482 Ry
     xc contribution           =     -67.98056879 Ry
     ewald contribution        =    -122.83755395 Ry

     convergence has been achieved in   7 iterations

     Forces acting on atoms (cartesian axes, Ry/au):

     atom    1 type  2   force =     0.00000000   -0.00004618   -0.00017151
     atom    2 type  2   force =     0.00000000    0.00004613   -0.00017144
     atom    3 type  2   force =     0.00000000   -0.00004617   -0.00017149
     atom    4 type  2   force =     0.00000000    0.00004615   -0.00017146
     atom    5 type  2   force =     0.00000000   -0.00112854   -0.00023855
     atom    6 type  2   force =     0.00000000    0.00112856   -0.00023853
     atom    7 type  2   force =     0.00000000   -0.00112853   -0.00023856
     atom    8 type  2   force =     0.00000000    0.00112855   -0.00023853
     atom    9 type  1   force =     0.00000000   -0.00016760   -0.00040204
     atom   10 type  1   force =     0.00000000    0.00016758   -0.00040210
     atom   11 type  1   force =     0.00000000   -0.00016763   -0.00040205
     atom   12 type  1   force =     0.00000000    0.00016762   -0.00040209
     atom   13 type  1   force =     0.00000000    0.00054603    0.00019174
     atom   14 type  1   force =     0.00000000   -0.00054598    0.00019170
     atom   15 type  1   force =     0.00000000    0.00054601    0.00019176
     atom   16 type  1   force =     0.00000000   -0.00054598    0.00019174
     atom   17 type  1   force =     0.00037368   -0.00016772    0.00031017
     atom   18 type  1   force =    -0.00037367    0.00016772    0.00031017
     atom   19 type  1   force =     0.00037367    0.00016772    0.00031017
     atom   20 type  1   force =    -0.00037368   -0.00016772    0.00031017
     atom   21 type  1   force =     0.00037368   -0.00016772    0.00031018
[...]
     atom    9 type  1   force =     0.00000000    0.00001174    0.00019053
     atom   10 type  1   force =     0.00000000   -0.00001170    0.00019014
     atom   11 type  1   force =     0.00000000    0.00001174    0.00019044
     atom   12 type  1   force =     0.00000000   -0.00001173    0.00019023
     atom   13 type  1   force =     0.00000000   -0.00019767   -0.00017564
     atom   14 type  1   force =     0.00000000    0.00019804   -0.00017574
     atom   15 type  1   force =     0.00000000   -0.00019778   -0.00017568
     atom   16 type  1   force =     0.00000000    0.00019799   -0.00017572
     atom   17 type  1   force =    -0.00003100   -0.00006561    0.00001934
     atom   18 type  1   force =     0.00003106    0.00006558    0.00001929
     atom   19 type  1   force =    -0.00003106    0.00006558    0.00001929
     atom   20 type  1   force =     0.00003100   -0.00006561    0.00001934
     atom   21 type  1   force =    -0.00003099   -0.00006560    0.00001933
     atom   22 type  1   force =     0.00003109    0.00006554    0.00001926
     atom   23 type  1   force =    -0.00003109    0.00006554    0.00001926
     atom   24 type  1   force =     0.00003099   -0.00006560    0.00001933

     Total force =     0.000800     Total SCF correction =     0.000020


     Computing stress (Cartesian axis) and pressure

          total   stress  (Ry/bohr**3)                   (kbar)     P=       22.43
   0.00015113   0.00000000   0.00000000           22.23        0.00        0.00
   0.00000000   0.00015502  -0.00000000            0.00       22.80       -0.00
   0.00000000  -0.00000000   0.00015136            0.00       -0.00       22.27

     Energy error            =      2.0E-06 Ry
     Gradient error          =      2.0E-04 Ry/Bohr

     number of scf cycles    =  32
     number of bfgs steps    =  31

     energy             old  =    -276.0088861145 Ry
     energy             new  =    -276.0088881402 Ry

     CASE: energy            _new < energy            _old

     new trust radius        =       0.0012765144 bohr
     new conv_thr            =       0.0000000010 Ry


ATOMIC_POSITIONS (crystal)
O                0.0000000000        0.6612949519        0.0578880715
O                0.0000000000        0.3387050002        0.5578880568
O                0.5000000000        0.1612950078        0.0578880967
O                0.5000000000        0.8387049890        0.5578880860
O                0.5000000000        0.8281336426        0.9337610954
O                0.5000000000        0.1718663714        0.4337611055
O                0.0000000000        0.3281335952        0.9337610648
O                0.0000000000        0.6718664032        0.4337611320
H                0.0000000000        0.6632236479        0.2057772846
H                0.0000000000        0.3367763215        0.7057771929
H                0.5000000000        0.1632236876        0.2057773007
H                0.5000000000        0.8367763541        0.7057772374
H                0.0000000000        0.5283739306        0.0145136868
H                0.0000000000        0.4716260879        0.5145136322
H                0.5000000000        0.0283739751        0.0145137050
H                0.5000000000        0.9716260460        0.5145136230
H                0.6938543775        0.7598640208        0.9830299548
H                0.3061456154        0.2401359835        0.4830299495
H                0.6938543846        0.2401359835        0.4830299495
H                0.3061456225        0.7598640208        0.9830299548
H                0.1938543873        0.2598639891        0.9830299514
H                0.8061456184        0.7401360006        0.4830299917
H                0.1938543816        0.7401360006        0.4830299917
H                0.8061456127        0.2598639891        0.9830299514



     Writing config-only to output data dir ./iceIh/iceIh.save/ :
     XML data file
     NEW-OLD atomic charge density approx. for the potential

     total cpu time spent up to now is     2382.4 secs

     per-process dynamical memory:    57.8 Mb

     Self-consistent Calculation

     iteration #  1     ecut=    90.00 Ry     beta= 0.70
     Davidson diagonalization with overlap
     ethr =  1.00E-06,  avg # of iterations =  2.0

     Threshold (ethr) on eigenvalues was too large:
     Diagonalizing with lowered threshold

     Davidson diagonalization with overlap
     ethr =  5.40E-10,  avg # of iterations =  4.2

     total cpu time spent up to now is     2403.2 secs

     total energy              =    -276.00888865 Ry
     estimated scf accuracy    <       0.00000054 Ry

     iteration #  2     ecut=    90.00 Ry     beta= 0.70
     Davidson diagonalization with overlap
     ethr =  8.50E-10,  avg # of iterations =  2.0

     total cpu time spent up to now is     2411.3 secs

     total energy              =    -276.00888873 Ry
     estimated scf accuracy    <       0.00000004 Ry

     iteration #  3     ecut=    90.00 Ry     beta= 0.70
     Davidson diagonalization with overlap
     ethr =  6.90E-11,  avg # of iterations =  2.0

     total cpu time spent up to now is     2420.2 secs

     total energy              =    -276.00888874 Ry
     estimated scf accuracy    <          5.1E-09 Ry

     iteration #  4     ecut=    90.00 Ry     beta= 0.70
     Davidson diagonalization with overlap
     ethr =  8.01E-12,  avg # of iterations =  2.0

     total cpu time spent up to now is     2427.7 secs

     End of self-consistent calculation

     Number of k-points >= 100: set verbosity='high' to print the bands.

     highest occupied level (ev):    -2.4393

!    total energy              =    -276.00888874 Ry
     estimated scf accuracy    <          2.5E-10 Ry

     The total energy is the sum of the following terms:
     one-electron contribution =    -215.76910258 Ry
     hartree contribution      =     130.61778176 Ry
     xc contribution           =     -67.98017331 Ry
     ewald contribution        =    -122.87739462 Ry

     convergence has been achieved in   4 iterations

     Forces acting on atoms (cartesian axes, Ry/au):

     atom    1 type  2   force =     0.00000000    0.00002769    0.00001793
     atom    2 type  2   force =     0.00000000   -0.00002700    0.00001697
     atom    3 type  2   force =     0.00000000    0.00002749    0.00001773
     atom    4 type  2   force =     0.00000000   -0.00002713    0.00001715
     atom    5 type  2   force =     0.00000000    0.00002589   -0.00003385
     atom    6 type  2   force =     0.00000000   -0.00002604   -0.00003400
     atom    7 type  2   force =     0.00000000    0.00002586   -0.00003383
     atom    8 type  2   force =     0.00000000   -0.00002612   -0.00003405
     atom    9 type  1   force =     0.00000000   -0.00000872    0.00010865
     atom   10 type  1   force =     0.00000000    0.00000872    0.00010932
     atom   11 type  1   force =     0.00000000   -0.00000872    0.00010877
     atom   12 type  1   force =     0.00000000    0.00000871    0.00010919
     atom   13 type  1   force =     0.00000000   -0.00004742   -0.00006215
     atom   14 type  1   force =     0.00000000    0.00004684   -0.00006192
     atom   15 type  1   force =     0.00000000   -0.00004730   -0.00006210
     atom   16 type  1   force =     0.00000000    0.00004699   -0.00006195
     atom   17 type  1   force =    -0.00001548   -0.00002128   -0.00001526
     atom   18 type  1   force =     0.00001539    0.00002132   -0.00001520
     atom   19 type  1   force =    -0.00001539    0.00002132   -0.00001520
     atom   20 type  1   force =     0.00001548   -0.00002128   -0.00001526
     atom   21 type  1   force =    -0.00001551   -0.00002124   -0.00001527
     atom   22 type  1   force =     0.00001536    0.00002133   -0.00001520
     atom   23 type  1   force =    -0.00001536    0.00002133   -0.00001520
     atom   24 type  1   force =     0.00001551   -0.00002124   -0.00001527

     Total force =     0.000302     Total SCF correction =     0.000028


     Computing stress (Cartesian axis) and pressure

          total   stress  (Ry/bohr**3)                   (kbar)     P=       22.29
   0.00015049   0.00000000   0.00000000           22.14        0.00        0.00
   0.00000000   0.00015389   0.00000000            0.00       22.64        0.00
   0.00000000   0.00000000   0.00015025            0.00        0.00       22.10

     Energy error            =      6.0E-07 Ry
     Gradient error          =      1.1E-04 Ry/Bohr

     number of scf cycles    =  33
     number of bfgs steps    =  32

     energy             old  =    -276.0088881402 Ry
     energy             new  =    -276.0088887448 Ry

     CASE: energy            _new < energy            _old

     new trust radius        =       0.0028083317 bohr
     new conv_thr            =       0.0000000010 Ry


ATOMIC_POSITIONS (crystal)
O                0.0000000000        0.6611165915        0.0578897963
O                0.0000000000        0.3388833815        0.5578897542
O                0.5000000000        0.1611166458        0.0578898116
O                0.5000000000        0.8388833615        0.5578897869
O                0.5000000000        0.8279713814        0.9337613131
O                0.5000000000        0.1720286275        0.4337613150
O                0.0000000000        0.3279713332        0.9337612817
O                0.0000000000        0.6720286574        0.4337613400
H                0.0000000000        0.6631473972        0.2057837206
H                0.0000000000        0.3368525758        0.7057836549
H                0.5000000000        0.1631474422        0.2057837369
H                0.5000000000        0.8368526020        0.7057836936
H                0.0000000000        0.5281739608        0.0145492267
H                0.0000000000        0.4718260395        0.5145491821
H                0.5000000000        0.0281740121        0.0145492436
H                0.5000000000        0.9718259983        0.5145491689
H                0.6938467270        0.7596768763        0.9830079992
H                0.3061532626        0.2403231286        0.4830079937
H                0.6938467374        0.2403231286        0.4830079937
H                0.3061532730        0.7596768763        0.9830079992
H                0.1938467351        0.2596768463        0.9830079926
H                0.8061532630        0.7403231449        0.4830080346
H                0.1938467370        0.7403231449        0.4830080346
H                0.8061532649        0.2596768463        0.9830079926



     Writing config-only to output data dir ./iceIh/iceIh.save/ :
     XML data file
     NEW-OLD atomic charge density approx. for the potential

     total cpu time spent up to now is     2435.6 secs

     per-process dynamical memory:    57.8 Mb

     Self-consistent Calculation

     iteration #  1     ecut=    90.00 Ry     beta= 0.70
     Davidson diagonalization with overlap
     ethr =  1.00E-06,  avg # of iterations =  2.0

     Threshold (ethr) on eigenvalues was too large:
     Diagonalizing with lowered threshold

     Davidson diagonalization with overlap
     ethr =  4.83E-09,  avg # of iterations =  4.5

     total cpu time spent up to now is     2457.0 secs

     total energy              =    -276.00888822 Ry
     estimated scf accuracy    <       0.00000504 Ry

     iteration #  2     ecut=    90.00 Ry     beta= 0.70
     Davidson diagonalization with overlap
     ethr =  7.88E-09,  avg # of iterations =  2.0

     total cpu time spent up to now is     2464.5 secs

     total energy              =    -276.00888895 Ry
     estimated scf accuracy    <       0.00000021 Ry

     iteration #  3     ecut=    90.00 Ry     beta= 0.70
     Davidson diagonalization with overlap
     ethr =  3.33E-10,  avg # of iterations =  2.2

     total cpu time spent up to now is     2473.7 secs

     total energy              =    -276.00888900 Ry
     estimated scf accuracy    <       0.00000002 Ry

     iteration #  4     ecut=    90.00 Ry     beta= 0.70
     Davidson diagonalization with overlap
     ethr =  3.72E-11,  avg # of iterations =  3.0

     total cpu time spent up to now is     2483.3 secs

     total energy              =    -276.00888900 Ry
     estimated scf accuracy    <          7.6E-09 Ry

     iteration #  5     ecut=    90.00 Ry     beta= 0.70
     Davidson diagonalization with overlap
     ethr =  1.18E-11,  avg # of iterations =  2.7

     total cpu time spent up to now is     2491.7 secs

     End of self-consistent calculation

     Number of k-points >= 100: set verbosity='high' to print the bands.

     highest occupied level (ev):    -2.4393

!    total energy              =    -276.00888901 Ry
     estimated scf accuracy    <          2.0E-10 Ry

     The total energy is the sum of the following terms:
     one-electron contribution =    -215.76075013 Ry
     hartree contribution      =     130.61388664 Ry
     xc contribution           =     -67.97970798 Ry
     ewald contribution        =    -122.88231754 Ry

     convergence has been achieved in   5 iterations

     Forces acting on atoms (cartesian axes, Ry/au):

     atom    1 type  2   force =     0.00000000   -0.00001752    0.00004313
     atom    2 type  2   force =     0.00000000    0.00001774    0.00004284
     atom    3 type  2   force =     0.00000000   -0.00001761    0.00004306
     atom    4 type  2   force =     0.00000000    0.00001773    0.00004290
     atom    5 type  2   force =     0.00000000   -0.00001374   -0.00002206
     atom    6 type  2   force =     0.00000000    0.00001369   -0.00002210
     atom    7 type  2   force =     0.00000000   -0.00001373   -0.00002207
     atom    8 type  2   force =     0.00000000    0.00001365   -0.00002213
     atom    9 type  1   force =     0.00000000   -0.00003060    0.00002724
     atom   10 type  1   force =     0.00000000    0.00003061    0.00002746
     atom   11 type  1   force =     0.00000000   -0.00003061    0.00002727
     atom   12 type  1   force =     0.00000000    0.00003060    0.00002741
     atom   13 type  1   force =     0.00000000    0.00003678    0.00000024
     atom   14 type  1   force =     0.00000000   -0.00003696    0.00000032
     atom   15 type  1   force =     0.00000000    0.00003682    0.00000026
     atom   16 type  1   force =     0.00000000   -0.00003691    0.00000033
     atom   17 type  1   force =    -0.00000124    0.00000277   -0.00002427
     atom   18 type  1   force =     0.00000122   -0.00000276   -0.00002425
     atom   19 type  1   force =    -0.00000122   -0.00000276   -0.00002425
     atom   20 type  1   force =     0.00000124    0.00000277   -0.00002427
     atom   21 type  1   force =    -0.00000125    0.00000279   -0.00002427
     atom   22 type  1   force =     0.00000120   -0.00000276   -0.00002426
     atom   23 type  1   force =    -0.00000120   -0.00000276   -0.00002426
     atom   24 type  1   force =     0.00000125    0.00000279   -0.00002427

     Total force =     0.000168     Total SCF correction =     0.000019
     SCF correction compared to forces is large: reduce conv_thr to get better values


     Computing stress (Cartesian axis) and pressure

          total   stress  (Ry/bohr**3)                   (kbar)     P=       22.24
   0.00015044   0.00000000   0.00000000           22.13        0.00        0.00
   0.00000000   0.00015352   0.00000000            0.00       22.58        0.00
   0.00000000   0.00000000   0.00014967            0.00        0.00       22.02

     Energy error            =      2.6E-07 Ry
     Gradient error          =      4.3E-05 Ry/Bohr

     bfgs converged in  34 scf cycles and  33 bfgs steps
     (criteria: energy <  1.0E-04 Ry, force <  1.0E-04 Ry/Bohr)

     End of BFGS Geometry Optimization

     Final energy             =    -276.0088890054 Ry

     File ./iceIh/iceIh.bfgs deleted, as requested
Begin final coordinates

ATOMIC_POSITIONS (crystal)
O                0.0000000000        0.6611165915        0.0578897963
O                0.0000000000        0.3388833815        0.5578897542
O                0.5000000000        0.1611166458        0.0578898116
O                0.5000000000        0.8388833615        0.5578897869
O                0.5000000000        0.8279713814        0.9337613131
O                0.5000000000        0.1720286275        0.4337613150
O                0.0000000000        0.3279713332        0.9337612817
O                0.0000000000        0.6720286574        0.4337613400
H                0.0000000000        0.6631473972        0.2057837206
H                0.0000000000        0.3368525758        0.7057836549
H                0.5000000000        0.1631474422        0.2057837369
H                0.5000000000        0.8368526020        0.7057836936
H                0.0000000000        0.5281739608        0.0145492267
H                0.0000000000        0.4718260395        0.5145491821
H                0.5000000000        0.0281740121        0.0145492436
H                0.5000000000        0.9718259983        0.5145491689
H                0.6938467270        0.7596768763        0.9830079992
H                0.3061532626        0.2403231286        0.4830079937
H                0.6938467374        0.2403231286        0.4830079937
H                0.3061532730        0.7596768763        0.9830079992
H                0.1938467351        0.2596768463        0.9830079926
H                0.8061532630        0.7403231449        0.4830080346
H                0.1938467370        0.7403231449        0.4830080346
H                0.8061532649        0.2596768463        0.9830079926
End final coordinates



     Writing all to output data dir ./iceIh/iceIh.save/ :
     XML data file, charge density, pseudopotentials, collected wavefunctions

     init_run     :      4.14s CPU      4.27s WALL (       1 calls)
     electrons    :   2185.43s CPU   2224.91s WALL (      34 calls)
     update_pot   :      0.42s CPU      0.44s WALL (      33 calls)
     forces       :     16.78s CPU     16.87s WALL (      34 calls)
     stress       :    248.14s CPU    248.29s WALL (      34 calls)

     Called by init_run:
     wfcinit      :      3.71s CPU      3.78s WALL (       1 calls)
     potinit      :      0.03s CPU      0.04s WALL (       1 calls)
     hinit0       :      0.34s CPU      0.36s WALL (       1 calls)

     Called by electrons:
     c_bands      :   1948.17s CPU   1983.50s WALL (     231 calls)
     sum_band     :    233.89s CPU    236.36s WALL (     231 calls)
     v_of_rho     :      2.37s CPU      2.38s WALL (     241 calls)
     newd         :      0.44s CPU      0.45s WALL (     241 calls)
     mix_rho      :      0.31s CPU      0.31s WALL (     231 calls)

     Called by c_bands:
     init_us_2    :     27.29s CPU     28.25s WALL (   61065 calls)
     cegterg      :   1874.48s CPU   1892.16s WALL (   26565 calls)

     Called by *egterg:
     cdiaghg      :    169.34s CPU    170.13s WALL (   96142 calls)
     h_psi        :   1419.36s CPU   1434.96s WALL (  102812 calls)
     s_psi        :     54.16s CPU     54.53s WALL (  102812 calls)
     g_psi        :      4.88s CPU      4.90s WALL (   76132 calls)

     Called by h_psi:
     h_psi:calbec :     82.90s CPU     83.66s WALL (  102812 calls)
     vloc_psi     :   1270.79s CPU   1284.95s WALL (  102812 calls)
     add_vuspsi   :     56.96s CPU     57.47s WALL (  102812 calls)

     General routines
     calbec       :    118.07s CPU    119.20s WALL (  148927 calls)
     fft          :      1.61s CPU      1.63s WALL (    2980 calls)
     ffts         :      0.10s CPU      0.10s WALL (     231 calls)
     fftw         :   1335.18s CPU   1349.64s WALL ( 6163232 calls)

     Parallel routines

     PWSCF        :  41m 0.60s CPU  41m48.48s WALL


   This run was terminated on:  20:37:54  31Mar2026            

=------------------------------------------------------------------------------=
   JOB DONE.
=------------------------------------------------------------------------------=
