
     Program PWSCF v.7.3.1 starts on 31Mar2026 at 20:37:57 

     This program is part of the open-source Quantum ESPRESSO suite
     for quantum simulation of materials; please cite
         "P. Giannozzi et al., J. Phys.:Condens. Matter 21 395502 (2009);
         "P. Giannozzi et al., J. Phys.:Condens. Matter 29 465901 (2017);
         "P. Giannozzi et al., J. Chem. Phys. 152 154105 (2020);
          URL http://www.quantum-espresso.org", 
     in publications or presentations arising from this work. More details at
     http://www.quantum-espresso.org/quote

     Parallel version (MPI), running on   128 processors

     MPI processes distributed on     1 nodes
     495666 MiB available memory on the printing compute node when the environment starts

     Waiting for input...
     Reading input from standard input

     Current dimensions of program PWSCF are:
     Max number of different atomic species (ntypx) = 10
     Max number of k-points (npk) =  40000
     Max angular momentum in pseudopotentials (lmaxx) =  4
     Found identity + ( -0.5000 -0.5000  0.0000) symmetry
     This is a supercell, fractional translations are disabled

     K-points division:     npool     =       4
     R & G space division:  proc/nbgrp/npool/nimage =      32
     Subspace diagonalization in iterative solution of the eigenvalue problem:
     a serial algorithm will be used


     Parallelization info
     --------------------
     sticks:   dense  smooth     PW     G-vecs:    dense   smooth      PW
     Min          99      99     27                 5249     5249     765
     Max         100     100     28                 5254     5254     770
     Sum        3195    3195    885               168081   168081   24529

     Using Slab Decomposition



     bravais-lattice index     =            8
     lattice parameter (alat)  =       8.0226  a.u.
     unit-cell volume          =    1455.8136 (a.u.)^3
     number of atoms/cell      =           24
     number of atomic types    =            2
     number of electrons       =        64.00
     number of Kohn-Sham states=           32
     kinetic-energy cutoff     =      90.0000  Ry
     charge density cutoff     =     360.0000  Ry
     scf convergence threshold =      1.0E-07
     mixing beta               =       0.7000
     number of iterations used =            8  plain     mixing
     energy convergence thresh.=      1.0E-04
     force convergence thresh. =      1.0E-04
     Exchange-correlation=  SLA  PW   PBE  PBE
                           (   1   4   3   4   0   0   0)
     nstep                     =           50


     celldm(1)=   8.022616  celldm(2)=   1.732119  celldm(3)=   1.627721
     celldm(4)=   0.000000  celldm(5)=   0.000000  celldm(6)=   0.000000

     crystal axes: (cart. coord. in units of alat)
               a(1) = (   1.000000   0.000000   0.000000 )  
               a(2) = (   0.000000   1.732119   0.000000 )  
               a(3) = (   0.000000   0.000000   1.627721 )  

     reciprocal axes: (cart. coord. in units 2 pi/alat)
               b(1) = (  1.000000  0.000000  0.000000 )  
               b(2) = (  0.000000  0.577328  0.000000 )  
               b(3) = (  0.000000  0.000000  0.614356 )  


     PseudoPot. # 1 for H  read from file:
     ./H.pbe-van_ak.UPF
     MD5 check sum: 077eb6d537518a38cb46c6de387227b7
     Pseudo is Ultrasoft, Zval =  1.0
     Generated by new atomic code, or converted to UPF format
     Using radial grid of  615 points,  1 beta functions with: 
                l(1) =   0
     Q(r) pseudized with  8 coefficients,  rinner =    0.800

     PseudoPot. # 2 for O  read from file:
     ./O.pbe-van_ak.UPF
     MD5 check sum: 78c19812648e8988a0fe644b0f25305e
     Pseudo is Ultrasoft, Zval =  6.0
     Generated by new atomic code, or converted to UPF format
     Using radial grid of  737 points,  4 beta functions with: 
                l(1) =   0
                l(2) =   0
                l(3) =   1
                l(4) =   1
     Q(r) pseudized with  8 coefficients,  rinner =    0.800   0.800   0.800


     atomic species   valence    mass     pseudopotential
     H                 1.00     1.00800     H ( 1.00)
     O                 6.00    16.00000     O ( 1.00)

      2 Sym. Ops. (no inversion) found



   Cartesian axes

     site n.     atom                  positions (alat units)
         1        O      tau(   1) = (   0.0000000   1.1515127   0.1027092  )
         2        O      tau(   2) = (   0.0000000   0.5806063   0.9165697  )
         3        O      tau(   3) = (   0.5000000   0.2854532   0.1027092  )
         4        O      tau(   4) = (   0.5000000   1.4466659   0.9165697  )
         5        O      tau(   5) = (   0.5000000   1.4298643   1.5250118  )
         6        O      tau(   6) = (   0.5000000   0.3022548   0.7111513  )
         7        O      tau(   7) = (   0.0000000   0.5638048   1.5250118  )
         8        O      tau(   8) = (   0.0000000   1.1683143   0.7111513  )
         9        H      tau(   9) = (   0.0000000   1.1494343   0.3195216  )
        10        H      tau(  10) = (   0.0000000   0.5826848   1.1333822  )
        11        H      tau(  11) = (   0.5000000   0.2833747   0.3195216  )
        12        H      tau(  12) = (   0.5000000   1.4487443   1.1333822  )
        13        H      tau(  13) = (   0.0000000   0.9289355   0.0297873  )
        14        H      tau(  14) = (   0.0000000   0.8031836   0.8436478  )
        15        H      tau(  15) = (   0.5000000   0.0628759   0.0297873  )
        16        H      tau(  16) = (   0.5000000   1.6692431   0.8436478  )
        17        H      tau(  17) = (   0.6766000   1.3420459   1.5979337  )
        18        H      tau(  18) = (   0.3234000   0.3900732   0.7840732  )
        19        H      tau(  19) = (   0.6766000   0.3900732   0.7840732  )
        20        H      tau(  20) = (   0.3234000   1.3420459   1.5979337  )
        21        H      tau(  21) = (   0.1766000   0.4759863   1.5979337  )
        22        H      tau(  22) = (   0.8234000   1.2561327   0.7840732  )
        23        H      tau(  23) = (   0.1766000   1.2561327   0.7840732  )
        24        H      tau(  24) = (   0.8234000   0.4759863   1.5979337  )

     number of k points=   460

     Number of k-points >= 100: set verbosity='high' to print them.

     Dense  grid:   168081 G-vectors     FFT dimensions: (  50,  90,  80)

     Estimated max dynamical RAM per process >      44.19 MB

     Estimated total dynamical RAM >       5.40 GB

     Initial potential from superposition of free atoms

     starting charge      63.9998, renormalised to      64.0000
     Starting wfcs are   48 randomized atomic wfcs

     total cpu time spent up to now is        4.5 secs

     per-process dynamical memory:    51.7 Mb

     Self-consistent Calculation

     iteration #  1     ecut=    90.00 Ry     beta= 0.70
     Davidson diagonalization with overlap
     ethr =  1.00E-02,  avg # of iterations =  2.0

     total cpu time spent up to now is       13.0 secs

     total energy              =    -274.55613519 Ry
     estimated scf accuracy    <       3.10961767 Ry

     iteration #  2     ecut=    90.00 Ry     beta= 0.70
     Davidson diagonalization with overlap
     ethr =  4.86E-03,  avg # of iterations =  3.0

     total cpu time spent up to now is       23.7 secs

     total energy              =    -275.56115185 Ry
     estimated scf accuracy    <       1.32035502 Ry

     iteration #  3     ecut=    90.00 Ry     beta= 0.70
     Davidson diagonalization with overlap
     ethr =  2.06E-03,  avg # of iterations =  2.0

     total cpu time spent up to now is       31.8 secs

     total energy              =    -275.72076631 Ry
     estimated scf accuracy    <       0.05115180 Ry

     iteration #  4     ecut=    90.00 Ry     beta= 0.70
     Davidson diagonalization with overlap
     ethr =  7.99E-05,  avg # of iterations =  4.0

     total cpu time spent up to now is       43.4 secs

     total energy              =    -275.75592472 Ry
     estimated scf accuracy    <       0.06250990 Ry

     iteration #  5     ecut=    90.00 Ry     beta= 0.70
     Davidson diagonalization with overlap
     ethr =  7.99E-05,  avg # of iterations =  2.0

     total cpu time spent up to now is       51.2 secs

     total energy              =    -275.75996815 Ry
     estimated scf accuracy    <       0.00832127 Ry

     iteration #  6     ecut=    90.00 Ry     beta= 0.70
     Davidson diagonalization with overlap
     ethr =  1.30E-05,  avg # of iterations =  2.0

     total cpu time spent up to now is       59.4 secs

     total energy              =    -275.76080386 Ry
     estimated scf accuracy    <       0.00145580 Ry

     iteration #  7     ecut=    90.00 Ry     beta= 0.70
     Davidson diagonalization with overlap
     ethr =  2.27E-06,  avg # of iterations =  3.0

     total cpu time spent up to now is       68.5 secs

     total energy              =    -275.76117668 Ry
     estimated scf accuracy    <       0.00005500 Ry

     iteration #  8     ecut=    90.00 Ry     beta= 0.70
     Davidson diagonalization with overlap
     ethr =  8.59E-08,  avg # of iterations =  4.0

     total cpu time spent up to now is       79.1 secs

     total energy              =    -275.76120140 Ry
     estimated scf accuracy    <       0.00000413 Ry

     iteration #  9     ecut=    90.00 Ry     beta= 0.70
     Davidson diagonalization with overlap
     ethr =  6.45E-09,  avg # of iterations =  3.2

     total cpu time spent up to now is       89.9 secs

     total energy              =    -275.76120581 Ry
     estimated scf accuracy    <       0.00000431 Ry

     iteration # 10     ecut=    90.00 Ry     beta= 0.70
     Davidson diagonalization with overlap
     ethr =  6.45E-09,  avg # of iterations =  2.0

     total cpu time spent up to now is       97.1 secs

     total energy              =    -275.76120286 Ry
     estimated scf accuracy    <       0.00000717 Ry

     iteration # 11     ecut=    90.00 Ry     beta= 0.70
     Davidson diagonalization with overlap
     ethr =  6.45E-09,  avg # of iterations =  2.0

     total cpu time spent up to now is      105.9 secs

     total energy              =    -275.76120344 Ry
     estimated scf accuracy    <       0.00000062 Ry

     iteration # 12     ecut=    90.00 Ry     beta= 0.70
     Davidson diagonalization with overlap
     ethr =  9.70E-10,  avg # of iterations =  3.0

     total cpu time spent up to now is      115.9 secs

     End of self-consistent calculation

     Number of k-points >= 100: set verbosity='high' to print the bands.

     highest occupied level (ev):    -2.6764

!    total energy              =    -275.76120369 Ry
     estimated scf accuracy    <       0.00000001 Ry

     The total energy is the sum of the following terms:
     one-electron contribution =    -227.84629075 Ry
     hartree contribution      =     135.95344440 Ry
     xc contribution           =     -69.04385241 Ry
     ewald contribution        =    -114.82450492 Ry

     convergence has been achieved in  12 iterations

     Forces acting on atoms (cartesian axes, Ry/au):

     atom    1 type  2   force =     0.00000000    0.00826684   -0.15885430
     atom    2 type  2   force =     0.00000000   -0.00827087   -0.15885707
     atom    3 type  2   force =     0.00000000    0.00826749   -0.15885507
     atom    4 type  2   force =     0.00000000   -0.00827003   -0.15885538
     atom    5 type  2   force =     0.00000000    0.22975302   -0.17219857
     atom    6 type  2   force =     0.00000000   -0.22974991   -0.17219581
     atom    7 type  2   force =     0.00000000    0.22975258   -0.17219835
     atom    8 type  2   force =     0.00000000   -0.22975164   -0.17219680
     atom    9 type  1   force =     0.00000000    0.00009877    0.16000799
     atom   10 type  1   force =     0.00000000   -0.00009877    0.16000551
     atom   11 type  1   force =     0.00000000    0.00009879    0.16000829
     atom   12 type  1   force =     0.00000000   -0.00009872    0.16000576
     atom   13 type  1   force =     0.00000000   -0.01179803   -0.00735632
     atom   14 type  1   force =     0.00000000    0.01179870   -0.00735678
     atom   15 type  1   force =     0.00000000   -0.01179786   -0.00735625
     atom   16 type  1   force =     0.00000000    0.01179928   -0.00735698
     atom   17 type  1   force =     0.19826676   -0.11411102    0.08920127
     atom   18 type  1   force =    -0.19826676    0.11411115    0.08920131
     atom   19 type  1   force =     0.19826676    0.11411115    0.08920131
     atom   20 type  1   force =    -0.19826676   -0.11411102    0.08920127
     atom   21 type  1   force =     0.19826675   -0.11411098    0.08920130
     atom   22 type  1   force =    -0.19826663    0.11411104    0.08920119
     atom   23 type  1   force =     0.19826663    0.11411104    0.08920119
     atom   24 type  1   force =    -0.19826675   -0.11411098    0.08920130

     Total force =     1.008192     Total SCF correction =     0.000184


     Computing stress (Cartesian axis) and pressure

          total   stress  (Ry/bohr**3)                   (kbar)     P=      192.12
   0.00184739   0.00000000   0.00000000          271.76        0.00        0.00
   0.00000000   0.00068739   0.00000000            0.00      101.12        0.00
   0.00000000   0.00000000   0.00138316            0.00        0.00      203.47


     BFGS Geometry Optimization
     Energy error            =      0.0E+00 Ry
     Gradient error          =      2.3E-01 Ry/Bohr

     number of scf cycles    =   1
     number of bfgs steps    =   0

     energy             new  =    -275.7612036861 Ry

     new trust radius        =       0.2871215687 bohr
     new conv_thr            =       0.0000001000 Ry


ATOMIC_POSITIONS (crystal)
O                0.0000000000        0.6653948906        0.0509352586
O                0.0000000000        0.3346048197        0.5509350238
O                0.5000000000        0.1653949373        0.0509352000
O                0.5000000000        0.8346048798        0.5509351526
O                0.5000000000        0.8420336125        0.9237133985
O                0.5000000000        0.1579666111        0.4237135795
O                0.0000000000        0.3420335811        0.9237134149
O                0.0000000000        0.6579664868        0.4237135035
H                0.0000000000        0.6636071356        0.2085530912
H                0.0000000000        0.3363928644        0.7085529316
H                0.5000000000        0.1636071369        0.2085531144
H                0.5000000000        0.8363928677        0.7085529510
H                0.0000000000        0.5354509884        0.0177366684
H                0.0000000000        0.4645490598        0.5177366292
H                0.5000000000        0.0354510007        0.0177366744
H                0.5000000000        0.9645491013        0.5177366145
H                0.7013134587        0.7665882884        0.9885308575
H                0.2986865422        0.2334117205        0.4885308610
H                0.7013134578        0.2334117205        0.4885308610
H                0.2986865413        0.7665882884        0.9885308575
H                0.2013134572        0.2665882916        0.9885308598
H                0.7986865586        0.7334117127        0.4885308516
H                0.2013134414        0.7334117127        0.4885308516
H                0.7986865428        0.2665882916        0.9885308598



     Writing config-only to output data dir ./iceIh/iceIh.save/ :
     XML data file
     NEW-OLD atomic charge density approx. for the potential

     total cpu time spent up to now is      124.1 secs

     per-process dynamical memory:    55.0 Mb

     Self-consistent Calculation

     iteration #  1     ecut=    90.00 Ry     beta= 0.70
     Davidson diagonalization with overlap
     ethr =  1.00E-06,  avg # of iterations = 12.0

     total cpu time spent up to now is      154.6 secs

     total energy              =    -275.84714738 Ry
     estimated scf accuracy    <       0.23120913 Ry

     iteration #  2     ecut=    90.00 Ry     beta= 0.70
     Davidson diagonalization with overlap
     ethr =  3.61E-04,  avg # of iterations =  3.0

     total cpu time spent up to now is      164.4 secs

     total energy              =    -275.90268167 Ry
     estimated scf accuracy    <       0.05470414 Ry

     iteration #  3     ecut=    90.00 Ry     beta= 0.70
     Davidson diagonalization with overlap
     ethr =  8.55E-05,  avg # of iterations =  2.4

     total cpu time spent up to now is      173.2 secs

     total energy              =    -275.91319631 Ry
     estimated scf accuracy    <       0.00215786 Ry

     iteration #  4     ecut=    90.00 Ry     beta= 0.70
     Davidson diagonalization with overlap
     ethr =  3.37E-06,  avg # of iterations =  3.0

     total cpu time spent up to now is      182.9 secs

     total energy              =    -275.91381701 Ry
     estimated scf accuracy    <       0.00051348 Ry

     iteration #  5     ecut=    90.00 Ry     beta= 0.70
     Davidson diagonalization with overlap
     ethr =  8.02E-07,  avg # of iterations =  2.0

     total cpu time spent up to now is      191.3 secs

     total energy              =    -275.91388390 Ry
     estimated scf accuracy    <       0.00006360 Ry

     iteration #  6     ecut=    90.00 Ry     beta= 0.70
     Davidson diagonalization with overlap
     ethr =  9.94E-08,  avg # of iterations =  3.5

     total cpu time spent up to now is      201.7 secs

     total energy              =    -275.91389874 Ry
     estimated scf accuracy    <       0.00002411 Ry

     iteration #  7     ecut=    90.00 Ry     beta= 0.70
     Davidson diagonalization with overlap
     ethr =  3.77E-08,  avg # of iterations =  2.6

     total cpu time spent up to now is      211.4 secs

     total energy              =    -275.91390544 Ry
     estimated scf accuracy    <       0.00000087 Ry

     iteration #  8     ecut=    90.00 Ry     beta= 0.70
     Davidson diagonalization with overlap
     ethr =  1.36E-09,  avg # of iterations =  3.0

     total cpu time spent up to now is      221.2 secs

     total energy              =    -275.91390529 Ry
     estimated scf accuracy    <       0.00000108 Ry

     iteration #  9     ecut=    90.00 Ry     beta= 0.70
     Davidson diagonalization with overlap
     ethr =  1.36E-09,  avg # of iterations =  2.0

     total cpu time spent up to now is      229.6 secs

     End of self-consistent calculation

     Number of k-points >= 100: set verbosity='high' to print the bands.

     highest occupied level (ev):    -2.2579

!    total energy              =    -275.91390540 Ry
     estimated scf accuracy    <       0.00000006 Ry

     The total energy is the sum of the following terms:
     one-electron contribution =    -212.27507277 Ry
     hartree contribution      =     128.97372986 Ry
     xc contribution           =     -67.48827017 Ry
     ewald contribution        =    -125.12429233 Ry

     convergence has been achieved in   9 iterations

     Forces acting on atoms (cartesian axes, Ry/au):

     atom    1 type  2   force =     0.00000000    0.06865486    0.07906443
     atom    2 type  2   force =     0.00000000   -0.06865045    0.07906449
     atom    3 type  2   force =     0.00000000    0.06865450    0.07906502
     atom    4 type  2   force =     0.00000000   -0.06865053    0.07906350
     atom    5 type  2   force =     0.00000000   -0.09307031    0.07441376
     atom    6 type  2   force =     0.00000000    0.09306834    0.07441254
     atom    7 type  2   force =     0.00000000   -0.09307004    0.07441341
     atom    8 type  2   force =     0.00000000    0.09306919    0.07441317
     atom    9 type  1   force =     0.00000000    0.00967106   -0.03205467
     atom   10 type  1   force =     0.00000000   -0.00967163   -0.03205491
     atom   11 type  1   force =     0.00000000    0.00967122   -0.03205502
     atom   12 type  1   force =     0.00000000   -0.00967144   -0.03205451
     atom   13 type  1   force =     0.00000000   -0.04982900   -0.03459602
     atom   14 type  1   force =     0.00000000    0.04982582   -0.03459560
     atom   15 type  1   force =     0.00000000   -0.04982877   -0.03459605
     atom   16 type  1   force =     0.00000000    0.04982569   -0.03459540
     atom   17 type  1   force =    -0.04318414    0.03345112   -0.04341373
     atom   18 type  1   force =     0.04318363   -0.03345056   -0.04341324
     atom   19 type  1   force =    -0.04318363   -0.03345056   -0.04341324
     atom   20 type  1   force =     0.04318414    0.03345112   -0.04341373
     atom   21 type  1   force =    -0.04318407    0.03345104   -0.04341370
     atom   22 type  1   force =     0.04318379   -0.03345086   -0.04341340
     atom   23 type  1   force =    -0.04318379   -0.03345086   -0.04341340
     atom   24 type  1   force =     0.04318407    0.03345104   -0.04341370

     Total force =     0.398504     Total SCF correction =     0.000237


     Computing stress (Cartesian axis) and pressure

          total   stress  (Ry/bohr**3)                   (kbar)     P=      -31.49
  -0.00050727   0.00000000   0.00000000          -74.62        0.00        0.00
   0.00000000   0.00022175   0.00000000            0.00       32.62        0.00
   0.00000000   0.00000000  -0.00035665            0.00        0.00      -52.47

     Energy error            =      1.5E-01 Ry
     Gradient error          =      9.3E-02 Ry/Bohr

     number of scf cycles    =   2
     number of bfgs steps    =   1

     energy             old  =    -275.7612036861 Ry
     energy             new  =    -275.9139054013 Ry

     CASE: energy            _new < energy            _old

     new trust radius        =       0.0817390851 bohr
     new conv_thr            =       0.0000001000 Ry


ATOMIC_POSITIONS (crystal)
O                0.0000000000        0.6691360724        0.0551565283
O                0.0000000000        0.3308638688        0.5551562907
O                0.5000000000        0.1691361008        0.0551565017
O                0.5000000000        0.8308639263        0.5551563665
O                0.5000000000        0.8374508031        0.9276373881
O                0.5000000000        0.1625493200        0.4276375045
O                0.0000000000        0.3374507851        0.9276373844
O                0.0000000000        0.6625492385        0.4276374627
H                0.0000000000        0.6641319747        0.2070480764
H                0.0000000000        0.3358679943        0.7070478976
H                0.5000000000        0.1641319846        0.2070480800
H                0.5000000000        0.8358680078        0.7070479407
H                0.0000000000        0.5327239143        0.0157236395
H                0.0000000000        0.4672759632        0.5157236235
H                0.5000000000        0.0327239394        0.0157236442
H                0.5000000000        0.9672759987        0.5157236200
H                0.6979523774        0.7681714594        0.9862172526
H                0.3020475755        0.2318285803        0.4862172841
H                0.6979524245        0.2318285803        0.4862172841
H                0.3020476226        0.7681714594        0.9862172526
H                0.1979523829        0.2681714583        0.9862172565
H                0.8020476069        0.7318285560        0.4862172654
H                0.1979523931        0.7318285560        0.4862172654
H                0.8020476171        0.2681714583        0.9862172565



     Writing config-only to output data dir ./iceIh/iceIh.save/ :
     XML data file
     NEW-OLD atomic charge density approx. for the potential

     total cpu time spent up to now is      237.8 secs

     per-process dynamical memory:    58.2 Mb

     Self-consistent Calculation

     iteration #  1     ecut=    90.00 Ry     beta= 0.70
     Davidson diagonalization with overlap
     ethr =  1.00E-06,  avg # of iterations =  9.0

     total cpu time spent up to now is      261.0 secs

     total energy              =    -275.98332056 Ry
     estimated scf accuracy    <       0.01415547 Ry

     iteration #  2     ecut=    90.00 Ry     beta= 0.70
     Davidson diagonalization with overlap
     ethr =  2.21E-05,  avg # of iterations =  2.7

     total cpu time spent up to now is      270.3 secs

     total energy              =    -275.98626647 Ry
     estimated scf accuracy    <       0.00237365 Ry

     iteration #  3     ecut=    90.00 Ry     beta= 0.70
     Davidson diagonalization with overlap
     ethr =  3.71E-06,  avg # of iterations =  2.8

     total cpu time spent up to now is      279.9 secs

     total energy              =    -275.98683524 Ry
     estimated scf accuracy    <       0.00022685 Ry

     iteration #  4     ecut=    90.00 Ry     beta= 0.70
     Davidson diagonalization with overlap
     ethr =  3.54E-07,  avg # of iterations =  2.2

     total cpu time spent up to now is      288.3 secs

     total energy              =    -275.98687490 Ry
     estimated scf accuracy    <       0.00001424 Ry

     iteration #  5     ecut=    90.00 Ry     beta= 0.70
     Davidson diagonalization with overlap
     ethr =  2.22E-08,  avg # of iterations =  2.9

     total cpu time spent up to now is      297.9 secs

     total energy              =    -275.98687939 Ry
     estimated scf accuracy    <       0.00000163 Ry

     iteration #  6     ecut=    90.00 Ry     beta= 0.70
     Davidson diagonalization with overlap
     ethr =  2.55E-09,  avg # of iterations =  2.0

     total cpu time spent up to now is      305.8 secs

     total energy              =    -275.98687950 Ry
     estimated scf accuracy    <       0.00000017 Ry

     iteration #  7     ecut=    90.00 Ry     beta= 0.70
     Davidson diagonalization with overlap
     ethr =  2.73E-10,  avg # of iterations =  3.8

     total cpu time spent up to now is      316.9 secs

     total energy              =    -275.98687955 Ry
     estimated scf accuracy    <       0.00000011 Ry

     iteration #  8     ecut=    90.00 Ry     beta= 0.70
     Davidson diagonalization with overlap
     ethr =  1.66E-10,  avg # of iterations =  3.0

     total cpu time spent up to now is      326.0 secs

     End of self-consistent calculation

     Number of k-points >= 100: set verbosity='high' to print the bands.

     highest occupied level (ev):    -2.3677

!    total energy              =    -275.98687958 Ry
     estimated scf accuracy    <          4.3E-09 Ry

     The total energy is the sum of the following terms:
     one-electron contribution =    -213.67188683 Ry
     hartree contribution      =     129.60853956 Ry
     xc contribution           =     -67.63293645 Ry
     ewald contribution        =    -124.29059586 Ry

     convergence has been achieved in   8 iterations

     Forces acting on atoms (cartesian axes, Ry/au):

     atom    1 type  2   force =     0.00000000   -0.02052780    0.02984455
     atom    2 type  2   force =     0.00000000    0.02052733    0.02984582
     atom    3 type  2   force =     0.00000000   -0.02052786    0.02984488
     atom    4 type  2   force =     0.00000000    0.02052714    0.02984531
     atom    5 type  2   force =     0.00000000   -0.03914777    0.04537083
     atom    6 type  2   force =     0.00000000    0.03914713    0.04537038
     atom    7 type  2   force =     0.00000000   -0.03914767    0.04537071
     atom    8 type  2   force =     0.00000000    0.03914754    0.04537071
     atom    9 type  1   force =     0.00000000    0.01045674   -0.02024920
     atom   10 type  1   force =     0.00000000   -0.01045690   -0.02024952
     atom   11 type  1   force =     0.00000000    0.01045682   -0.02024934
     atom   12 type  1   force =     0.00000000   -0.01045677   -0.02024935
     atom   13 type  1   force =     0.00000000    0.01915032   -0.01142126
     atom   14 type  1   force =     0.00000000   -0.01914955   -0.01142170
     atom   15 type  1   force =     0.00000000    0.01915030   -0.01142131
     atom   16 type  1   force =     0.00000000   -0.01914952   -0.01142155
     atom   17 type  1   force =    -0.02598596    0.01622460   -0.02177252
     atom   18 type  1   force =     0.02598591   -0.01622440   -0.02177244
     atom   19 type  1   force =    -0.02598591   -0.01622440   -0.02177244
     atom   20 type  1   force =     0.02598596    0.01622460   -0.02177252
     atom   21 type  1   force =    -0.02598594    0.01622457   -0.02177252
     atom   22 type  1   force =     0.02598596   -0.01622452   -0.02177250
     atom   23 type  1   force =    -0.02598596   -0.01622452   -0.02177250
     atom   24 type  1   force =     0.02598594    0.01622457   -0.02177252

     Total force =     0.187027     Total SCF correction =     0.000099


     Computing stress (Cartesian axis) and pressure

          total   stress  (Ry/bohr**3)                   (kbar)     P=      -20.23
  -0.00021423   0.00000000   0.00000000          -31.51        0.00        0.00
   0.00000000  -0.00011087  -0.00000000            0.00      -16.31       -0.00
   0.00000000  -0.00000000  -0.00008740            0.00       -0.00      -12.86

     Energy error            =      7.3E-02 Ry
     Gradient error          =      4.5E-02 Ry/Bohr

     number of scf cycles    =   3
     number of bfgs steps    =   2

     energy             old  =    -275.9139054013 Ry
     energy             new  =    -275.9868795772 Ry

     CASE: energy            _new < energy            _old

     new trust radius        =       0.0974371311 bohr
     new conv_thr            =       0.0000001000 Ry


ATOMIC_POSITIONS (crystal)
O                0.0000000000        0.6673413535        0.0589950510
O                0.0000000000        0.3326585628        0.5589949575
O                0.5000000000        0.1673413737        0.0589950658
O                0.5000000000        0.8326585993        0.5589949693
O                0.5000000000        0.8327786202        0.9332011405
O                0.5000000000        0.1672214245        0.4332011989
O                0.0000000000        0.3327786145        0.9332011218
O                0.0000000000        0.6672213909        0.4332011984
H                0.0000000000        0.6652953280        0.2045720006
H                0.0000000000        0.3347046211        0.7045717838
H                0.5000000000        0.1652953468        0.2045719860
H                0.5000000000        0.8347046492        0.7045718492
H                0.0000000000        0.5344775399        0.0142287544
H                0.0000000000        0.4655224022        0.5142286910
H                0.5000000000        0.0344775641        0.0142287529
H                0.5000000000        0.9655224398        0.5142287051
H                0.6927603615        0.7700792038        0.9835015891
H                0.3072395785        0.2299208600        0.4835016322
H                0.6927604215        0.2299208600        0.4835016322
H                0.3072396385        0.7700792038        0.9835015891
H                0.1927603709        0.2700791996        0.9835015924
H                0.8072396205        0.7299208215        0.4835016062
H                0.1927603795        0.7299208215        0.4835016062
H                0.8072396291        0.2700791996        0.9835015924



     Writing config-only to output data dir ./iceIh/iceIh.save/ :
     XML data file
     NEW-OLD atomic charge density approx. for the potential

     total cpu time spent up to now is      334.1 secs

     per-process dynamical memory:    58.2 Mb

     Self-consistent Calculation

     iteration #  1     ecut=    90.00 Ry     beta= 0.70
     Davidson diagonalization with overlap
     ethr =  1.00E-06,  avg # of iterations =  9.0

     total cpu time spent up to now is      357.7 secs

     total energy              =    -276.00033131 Ry
     estimated scf accuracy    <       0.01945962 Ry

     iteration #  2     ecut=    90.00 Ry     beta= 0.70
     Davidson diagonalization with overlap
     ethr =  3.04E-05,  avg # of iterations =  3.0

     total cpu time spent up to now is      367.5 secs

     total energy              =    -276.00543627 Ry
     estimated scf accuracy    <       0.00429409 Ry

     iteration #  3     ecut=    90.00 Ry     beta= 0.70
     Davidson diagonalization with overlap
     ethr =  6.71E-06,  avg # of iterations =  2.0

     total cpu time spent up to now is      375.4 secs

     total energy              =    -276.00605068 Ry
     estimated scf accuracy    <       0.00015929 Ry

     iteration #  4     ecut=    90.00 Ry     beta= 0.70
     Davidson diagonalization with overlap
     ethr =  2.49E-07,  avg # of iterations =  3.0

     total cpu time spent up to now is      386.1 secs

     total energy              =    -276.00612370 Ry
     estimated scf accuracy    <       0.00007349 Ry

     iteration #  5     ecut=    90.00 Ry     beta= 0.70
     Davidson diagonalization with overlap
     ethr =  1.15E-07,  avg # of iterations =  2.0

     total cpu time spent up to now is      394.4 secs

     total energy              =    -276.00613302 Ry
     estimated scf accuracy    <       0.00001039 Ry

     iteration #  6     ecut=    90.00 Ry     beta= 0.70
     Davidson diagonalization with overlap
     ethr =  1.62E-08,  avg # of iterations =  3.0

     total cpu time spent up to now is      405.0 secs

     total energy              =    -276.00613532 Ry
     estimated scf accuracy    <       0.00000548 Ry

     iteration #  7     ecut=    90.00 Ry     beta= 0.70
     Davidson diagonalization with overlap
     ethr =  8.56E-09,  avg # of iterations =  2.0

     total cpu time spent up to now is      414.0 secs

     End of self-consistent calculation

     Number of k-points >= 100: set verbosity='high' to print the bands.

     highest occupied level (ev):    -2.4976

!    total energy              =    -276.00613677 Ry
     estimated scf accuracy    <       0.00000008 Ry

     The total energy is the sum of the following terms:
     one-electron contribution =    -217.93500301 Ry
     hartree contribution      =     131.52903829 Ry
     xc contribution           =     -68.05828548 Ry
     ewald contribution        =    -121.54188656 Ry

     convergence has been achieved in   7 iterations

     Forces acting on atoms (cartesian axes, Ry/au):

     atom    1 type  2   force =     0.00000000   -0.01040240   -0.01604025
     atom    2 type  2   force =     0.00000000    0.01040272   -0.01604130
     atom    3 type  2   force =     0.00000000   -0.01040242   -0.01604058
     atom    4 type  2   force =     0.00000000    0.01040264   -0.01604084
     atom    5 type  2   force =     0.00000000    0.02868130   -0.01247622
     atom    6 type  2   force =     0.00000000   -0.02868114   -0.01247602
     atom    7 type  2   force =     0.00000000    0.02868119   -0.01247611
     atom    8 type  2   force =     0.00000000   -0.02868143   -0.01247622
     atom    9 type  1   force =     0.00000000    0.00131450    0.01206031
     atom   10 type  1   force =     0.00000000   -0.00131454    0.01206149
     atom   11 type  1   force =     0.00000000    0.00131449    0.01206061
     atom   12 type  1   force =     0.00000000   -0.00131454    0.01206098
     atom   13 type  1   force =     0.00000000    0.01040827   -0.00004909
     atom   14 type  1   force =     0.00000000   -0.01040832   -0.00004911
     atom   15 type  1   force =     0.00000000    0.01040830   -0.00004906
     atom   16 type  1   force =     0.00000000   -0.01040834   -0.00004910
     atom   17 type  1   force =     0.01151841   -0.01522218    0.00825261
     atom   18 type  1   force =    -0.01151815    0.01522199    0.00825248
     atom   19 type  1   force =     0.01151815    0.01522199    0.00825248
     atom   20 type  1   force =    -0.01151841   -0.01522218    0.00825261
     atom   21 type  1   force =     0.01151832   -0.01522212    0.00825257
     atom   22 type  1   force =    -0.01151843    0.01522217    0.00825261
     atom   23 type  1   force =     0.01151843    0.01522217    0.00825261
     atom   24 type  1   force =    -0.01151832   -0.01522212    0.00825257

     Total force =     0.099283     Total SCF correction =     0.000500


     Computing stress (Cartesian axis) and pressure

          total   stress  (Ry/bohr**3)                   (kbar)     P=       33.06
   0.00025915   0.00000000   0.00000000           38.12        0.00        0.00
   0.00000000   0.00013740   0.00000000            0.00       20.21        0.00
   0.00000000   0.00000000   0.00027772            0.00        0.00       40.85

     Energy error            =      1.9E-02 Ry
     Gradient error          =      2.9E-02 Ry/Bohr

     number of scf cycles    =   4
     number of bfgs steps    =   3

     energy             old  =    -275.9868795772 Ry
     energy             new  =    -276.0061367669 Ry

     CASE: energy            _new < energy            _old

     new trust radius        =       0.0291609309 bohr
     new conv_thr            =       0.0000001000 Ry


ATOMIC_POSITIONS (crystal)
O                0.0000000000        0.6672255420        0.0578720123
O                0.0000000000        0.3327744059        0.5578718434
O                0.5000000000        0.1672255611        0.0578720052
O                0.5000000000        0.8327744406        0.5578718854
O                0.5000000000        0.8345675879        0.9320338589
O                0.5000000000        0.1654324698        0.4320339317
O                0.0000000000        0.3345675754        0.9320338473
O                0.0000000000        0.6654324175        0.4320339171
H                0.0000000000        0.6652344025        0.2054305696
H                0.0000000000        0.3347655455        0.7054304217
H                0.5000000000        0.1652344205        0.2054305724
H                0.5000000000        0.8347655723        0.7054304572
H                0.0000000000        0.5346487198        0.0143281762
H                0.0000000000        0.4653512031        0.5143281192
H                0.5000000000        0.0346487460        0.0143281772
H                0.5000000000        0.9653512387        0.5143281321
H                0.6942006452        0.7691619885        0.9841677538
H                0.3057993168        0.2308380641        0.4841677895
H                0.6942006832        0.2308380641        0.4841677895
H                0.3057993548        0.7691619885        0.9841677538
H                0.1942006467        0.2691619874        0.9841677550
H                0.8057993338        0.7308380357        0.4841677713
H                0.1942006662        0.7308380357        0.4841677713
H                0.8057993533        0.2691619874        0.9841677550



     Writing config-only to output data dir ./iceIh/iceIh.save/ :
     XML data file
     NEW-OLD atomic charge density approx. for the potential

     total cpu time spent up to now is      422.1 secs

     per-process dynamical memory:    58.2 Mb

     Self-consistent Calculation

     iteration #  1     ecut=    90.00 Ry     beta= 0.70
     Davidson diagonalization with overlap
     ethr =  1.00E-06,  avg # of iterations =  5.0

     total cpu time spent up to now is      438.0 secs

     total energy              =    -276.00950519 Ry
     estimated scf accuracy    <       0.00174296 Ry

     iteration #  2     ecut=    90.00 Ry     beta= 0.70
     Davidson diagonalization with overlap
     ethr =  2.72E-06,  avg # of iterations =  3.0

     total cpu time spent up to now is      447.9 secs

     total energy              =    -276.00992182 Ry
     estimated scf accuracy    <       0.00043120 Ry

     iteration #  3     ecut=    90.00 Ry     beta= 0.70
     Davidson diagonalization with overlap
     ethr =  6.74E-07,  avg # of iterations =  2.3

     total cpu time spent up to now is      456.8 secs

     total energy              =    -276.01000606 Ry
     estimated scf accuracy    <       0.00001404 Ry

     iteration #  4     ecut=    90.00 Ry     beta= 0.70
     Davidson diagonalization with overlap
     ethr =  2.19E-08,  avg # of iterations =  3.0

     total cpu time spent up to now is      467.3 secs

     total energy              =    -276.01001061 Ry
     estimated scf accuracy    <       0.00000579 Ry

     iteration #  5     ecut=    90.00 Ry     beta= 0.70
     Davidson diagonalization with overlap
     ethr =  9.04E-09,  avg # of iterations =  2.0

     total cpu time spent up to now is      475.9 secs

     total energy              =    -276.01001143 Ry
     estimated scf accuracy    <       0.00000062 Ry

     iteration #  6     ecut=    90.00 Ry     beta= 0.70
     Davidson diagonalization with overlap
     ethr =  9.61E-10,  avg # of iterations =  3.3

     total cpu time spent up to now is      486.8 secs

     total energy              =    -276.01001157 Ry
     estimated scf accuracy    <       0.00000033 Ry

     iteration #  7     ecut=    90.00 Ry     beta= 0.70
     Davidson diagonalization with overlap
     ethr =  5.17E-10,  avg # of iterations =  2.3

     total cpu time spent up to now is      496.2 secs

     End of self-consistent calculation

     Number of k-points >= 100: set verbosity='high' to print the bands.

     highest occupied level (ev):    -2.4776

!    total energy              =    -276.01001166 Ry
     estimated scf accuracy    <          3.9E-09 Ry

     The total energy is the sum of the following terms:
     one-electron contribution =    -216.78223506 Ry
     hartree contribution      =     131.01068864 Ry
     xc contribution           =     -67.94266487 Ry
     ewald contribution        =    -122.29580037 Ry

     convergence has been achieved in   7 iterations

     Forces acting on atoms (cartesian axes, Ry/au):

     atom    1 type  2   force =     0.00000000   -0.00151522    0.00258928
     atom    2 type  2   force =     0.00000000    0.00151489    0.00258997
     atom    3 type  2   force =     0.00000000   -0.00151517    0.00258942
     atom    4 type  2   force =     0.00000000    0.00151490    0.00258976
     atom    5 type  2   force =     0.00000000    0.00142790    0.00549685
     atom    6 type  2   force =     0.00000000   -0.00142804    0.00549682
     atom    7 type  2   force =     0.00000000    0.00142794    0.00549681
     atom    8 type  2   force =     0.00000000   -0.00142790    0.00549691
     atom    9 type  1   force =     0.00000000    0.00218915   -0.00074850
     atom   10 type  1   force =     0.00000000   -0.00218920   -0.00074865
     atom   11 type  1   force =     0.00000000    0.00218916   -0.00074855
     atom   12 type  1   force =     0.00000000   -0.00218917   -0.00074861
     atom   13 type  1   force =     0.00000000    0.00371403   -0.00396963
     atom   14 type  1   force =     0.00000000   -0.00371352   -0.00396986
     atom   15 type  1   force =     0.00000000    0.00371396   -0.00396965
     atom   16 type  1   force =     0.00000000   -0.00371360   -0.00396980
     atom   17 type  1   force =    -0.00360858   -0.00298749   -0.00168405
     atom   18 type  1   force =     0.00360862    0.00298747   -0.00168410
     atom   19 type  1   force =    -0.00360862    0.00298747   -0.00168410
     atom   20 type  1   force =     0.00360858   -0.00298749   -0.00168405
     atom   21 type  1   force =    -0.00360857   -0.00298750   -0.00168406
     atom   22 type  1   force =     0.00360863    0.00298746   -0.00168409
     atom   23 type  1   force =    -0.00360863    0.00298746   -0.00168409
     atom   24 type  1   force =     0.00360857   -0.00298750   -0.00168406

     Total force =     0.022426     Total SCF correction =     0.000145


     Computing stress (Cartesian axis) and pressure

          total   stress  (Ry/bohr**3)                   (kbar)     P=       17.56
   0.00008569   0.00000000   0.00000000           12.61        0.00        0.00
   0.00000000   0.00012107  -0.00000000            0.00       17.81       -0.00
   0.00000000  -0.00000000   0.00015129            0.00       -0.00       22.26

     Energy error            =      3.9E-03 Ry
     Gradient error          =      5.5E-03 Ry/Bohr

     number of scf cycles    =   5
     number of bfgs steps    =   4

     energy             old  =    -276.0061367669 Ry
     energy             new  =    -276.0100116566 Ry

     CASE: energy            _new < energy            _old

     new trust radius        =       0.0060245780 bohr
     new conv_thr            =       0.0000000387 Ry


ATOMIC_POSITIONS (crystal)
O                0.0000000000        0.6671159526        0.0580653579
O                0.0000000000        0.3328839794        0.5580652327
O                0.5000000000        0.1671159744        0.0580653591
O                0.5000000000        0.8328840144        0.5580652611
O                0.5000000000        0.8347158235        0.9324673993
O                0.5000000000        0.1652842235        0.4324674697
O                0.0000000000        0.3347158128        0.9324673853
O                0.0000000000        0.6652841801        0.4324674611
H                0.0000000000        0.6654087298        0.2054036797
H                0.0000000000        0.3345912139        0.7054035286
H                0.5000000000        0.1654087491        0.2054036803
H                0.5000000000        0.8345912427        0.7054035639
H                0.0000000000        0.5349267194        0.0139937573
H                0.0000000000        0.4650732352        0.5139936837
H                0.5000000000        0.0349267412        0.0139937570
H                0.5000000000        0.9650732651        0.5139937013
H                0.6937863756        0.7689117762        0.9840349616
H                0.3062135936        0.2310882746        0.4840349937
H                0.6937864064        0.2310882746        0.4840349937
H                0.3062136244        0.7689117762        0.9840349616
H                0.1937863773        0.2689117749        0.9840349622
H                0.8062136088        0.7310882458        0.4840349765
H                0.1937863912        0.7310882458        0.4840349765
H                0.8062136227        0.2689117749        0.9840349622



     Writing config-only to output data dir ./iceIh/iceIh.save/ :
     XML data file
     NEW-OLD atomic charge density approx. for the potential

     total cpu time spent up to now is      504.3 secs

     per-process dynamical memory:    58.2 Mb

     Self-consistent Calculation

     iteration #  1     ecut=    90.00 Ry     beta= 0.70
     Davidson diagonalization with overlap
     ethr =  1.00E-06,  avg # of iterations =  3.0

     Threshold (ethr) on eigenvalues was too large:
     Diagonalizing with lowered threshold

     Davidson diagonalization with overlap
     ethr =  5.44E-08,  avg # of iterations =  2.0

     total cpu time spent up to now is      522.1 secs

     total energy              =    -276.01043289 Ry
     estimated scf accuracy    <       0.00003718 Ry

     iteration #  2     ecut=    90.00 Ry     beta= 0.70
     Davidson diagonalization with overlap
     ethr =  5.81E-08,  avg # of iterations =  2.0

     total cpu time spent up to now is      531.1 secs

     total energy              =    -276.01044041 Ry
     estimated scf accuracy    <       0.00000436 Ry

     iteration #  3     ecut=    90.00 Ry     beta= 0.70
     Davidson diagonalization with overlap
     ethr =  6.81E-09,  avg # of iterations =  2.0

     total cpu time spent up to now is      539.7 secs

     total energy              =    -276.01044129 Ry
     estimated scf accuracy    <       0.00000017 Ry

     iteration #  4     ecut=    90.00 Ry     beta= 0.70
     Davidson diagonalization with overlap
     ethr =  2.69E-10,  avg # of iterations =  2.4

     total cpu time spent up to now is      547.8 secs

     End of self-consistent calculation

     Number of k-points >= 100: set verbosity='high' to print the bands.

     highest occupied level (ev):    -2.4848

!    total energy              =    -276.01044132 Ry
     estimated scf accuracy    <       0.00000003 Ry

     The total energy is the sum of the following terms:
     one-electron contribution =    -216.93476380 Ry
     hartree contribution      =     131.08017374 Ry
     xc contribution           =     -67.95776307 Ry
     ewald contribution        =    -122.19808818 Ry

     convergence has been achieved in   4 iterations

     Forces acting on atoms (cartesian axes, Ry/au):

     atom    1 type  2   force =     0.00000000    0.00105473    0.00074557
     atom    2 type  2   force =     0.00000000   -0.00105455    0.00074554
     atom    3 type  2   force =     0.00000000    0.00105469    0.00074556
     atom    4 type  2   force =     0.00000000   -0.00105462    0.00074552
     atom    5 type  2   force =     0.00000000    0.00149904    0.00361356
     atom    6 type  2   force =     0.00000000   -0.00149917    0.00361349
     atom    7 type  2   force =     0.00000000    0.00149904    0.00361355
     atom    8 type  2   force =     0.00000000   -0.00149912    0.00361351
     atom    9 type  1   force =     0.00000000    0.00116983    0.00040643
     atom   10 type  1   force =     0.00000000   -0.00116986    0.00040668
     atom   11 type  1   force =     0.00000000    0.00116984    0.00040647
     atom   12 type  1   force =     0.00000000   -0.00116985    0.00040661
     atom   13 type  1   force =     0.00000000    0.00167858   -0.00307358
     atom   14 type  1   force =     0.00000000   -0.00167856   -0.00307360
     atom   15 type  1   force =     0.00000000    0.00167859   -0.00307357
     atom   16 type  1   force =     0.00000000   -0.00167855   -0.00307359
     atom   17 type  1   force =    -0.00214776   -0.00295790   -0.00084601
     atom   18 type  1   force =     0.00214777    0.00295787   -0.00084603
     atom   19 type  1   force =    -0.00214777    0.00295787   -0.00084603
     atom   20 type  1   force =     0.00214776   -0.00295790   -0.00084601
     atom   21 type  1   force =    -0.00214776   -0.00295789   -0.00084602
     atom   22 type  1   force =     0.00214774    0.00295789   -0.00084601
     atom   23 type  1   force =    -0.00214774    0.00295789   -0.00084601
     atom   24 type  1   force =     0.00214776   -0.00295789   -0.00084602

     Total force =     0.015353     Total SCF correction =     0.000165


     Computing stress (Cartesian axis) and pressure

          total   stress  (Ry/bohr**3)                   (kbar)     P=       19.63
   0.00010028   0.00000000   0.00000000           14.75        0.00        0.00
   0.00000000   0.00013892   0.00000000            0.00       20.44        0.00
   0.00000000   0.00000000   0.00016120            0.00        0.00       23.71

     Energy error            =      4.3E-04 Ry
     Gradient error          =      3.6E-03 Ry/Bohr

     number of scf cycles    =   6
     number of bfgs steps    =   5

     energy             old  =    -276.0100116566 Ry
     energy             new  =    -276.0104413195 Ry

     CASE: energy            _new < energy            _old

     new trust radius        =       0.0066270358 bohr
     new conv_thr            =       0.0000000043 Ry


ATOMIC_POSITIONS (crystal)
O                0.0000000000        0.6671594854        0.0581683988
O                0.0000000000        0.3328404622        0.5581682765
O                0.5000000000        0.1671595043        0.0581684000
O                0.5000000000        0.8328404904        0.5581683014
O                0.5000000000        0.8349322028        0.9329196403
O                0.5000000000        0.1650678298        0.4329197037
O                0.0000000000        0.3349321923        0.9329196253
O                0.0000000000        0.6650677922        0.4329196984
H                0.0000000000        0.6655694136        0.2054609503
H                0.0000000000        0.3344305261        0.7054608261
H                0.5000000000        0.1655694341        0.2054609544
H                0.5000000000        0.8344305566        0.7054608528
H                0.0000000000        0.5351707258        0.0136018824
H                0.0000000000        0.4648292366        0.5136018026
H                0.5000000000        0.0351707476        0.0136018833
H                0.5000000000        0.9648292658        0.5136018225
H                0.6933862414        0.7685562313        0.9839246202
H                0.3066137320        0.2314438161        0.4839246491
H                0.6933862680        0.2314438161        0.4839246491
H                0.3066137586        0.7685562313        0.9839246202
H                0.1933862420        0.2685562306        0.9839246195
H                0.8066137413        0.7314437892        0.4839246349
H                0.1933862587        0.7314437892        0.4839246349
H                0.8066137580        0.2685562306        0.9839246195



     Writing config-only to output data dir ./iceIh/iceIh.save/ :
     XML data file
     NEW-OLD atomic charge density approx. for the potential

     total cpu time spent up to now is      555.9 secs

     per-process dynamical memory:    58.2 Mb

     Self-consistent Calculation

     iteration #  1     ecut=    90.00 Ry     beta= 0.70
     Davidson diagonalization with overlap
     ethr =  1.00E-06,  avg # of iterations =  3.0

     Threshold (ethr) on eigenvalues was too large:
     Diagonalizing with lowered threshold

     Davidson diagonalization with overlap
     ethr =  4.05E-08,  avg # of iterations =  2.1

     total cpu time spent up to now is      573.8 secs

     total energy              =    -276.01075289 Ry
     estimated scf accuracy    <       0.00002897 Ry

     iteration #  2     ecut=    90.00 Ry     beta= 0.70
     Davidson diagonalization with overlap
     ethr =  4.53E-08,  avg # of iterations =  2.0

     total cpu time spent up to now is      581.7 secs

     total energy              =    -276.01075722 Ry
     estimated scf accuracy    <       0.00000133 Ry

     iteration #  3     ecut=    90.00 Ry     beta= 0.70
     Davidson diagonalization with overlap
     ethr =  2.08E-09,  avg # of iterations =  2.2

     total cpu time spent up to now is      590.8 secs

     total energy              =    -276.01075757 Ry
     estimated scf accuracy    <       0.00000021 Ry

     iteration #  4     ecut=    90.00 Ry     beta= 0.70
     Davidson diagonalization with overlap
     ethr =  3.24E-10,  avg # of iterations =  2.1

     total cpu time spent up to now is      599.2 secs

     total energy              =    -276.01075761 Ry
     estimated scf accuracy    <       0.00000002 Ry

     iteration #  5     ecut=    90.00 Ry     beta= 0.70
     Davidson diagonalization with overlap
     ethr =  2.43E-11,  avg # of iterations =  2.1

     total cpu time spent up to now is      608.2 secs

     End of self-consistent calculation

     Number of k-points >= 100: set verbosity='high' to print the bands.

     highest occupied level (ev):    -2.4885

!    total energy              =    -276.01075761 Ry
     estimated scf accuracy    <          3.2E-09 Ry

     The total energy is the sum of the following terms:
     one-electron contribution =    -216.99133654 Ry
     hartree contribution      =     131.10449133 Ry
     xc contribution           =     -67.96281034 Ry
     ewald contribution        =    -122.16110207 Ry

     convergence has been achieved in   5 iterations

     Forces acting on atoms (cartesian axes, Ry/au):

     atom    1 type  2   force =     0.00000000    0.00193458    0.00002667
     atom    2 type  2   force =     0.00000000   -0.00193452    0.00002683
     atom    3 type  2   force =     0.00000000    0.00193459    0.00002669
     atom    4 type  2   force =     0.00000000   -0.00193453    0.00002678
     atom    5 type  2   force =     0.00000000    0.00080949    0.00213821
     atom    6 type  2   force =     0.00000000   -0.00080954    0.00213821
     atom    7 type  2   force =     0.00000000    0.00080950    0.00213820
     atom    8 type  2   force =     0.00000000   -0.00080950    0.00213822
     atom    9 type  1   force =     0.00000000    0.00038494    0.00033305
     atom   10 type  1   force =     0.00000000   -0.00038493    0.00033309
     atom   11 type  1   force =     0.00000000    0.00038494    0.00033305
     atom   12 type  1   force =     0.00000000   -0.00038494    0.00033306
     atom   13 type  1   force =     0.00000000    0.00086873   -0.00193347
     atom   14 type  1   force =     0.00000000   -0.00086866   -0.00193347
     atom   15 type  1   force =     0.00000000    0.00086871   -0.00193346
     atom   16 type  1   force =     0.00000000   -0.00086869   -0.00193347
     atom   17 type  1   force =    -0.00093372   -0.00240832   -0.00028226
     atom   18 type  1   force =     0.00093374    0.00240827   -0.00028230
     atom   19 type  1   force =    -0.00093374    0.00240827   -0.00028230
     atom   20 type  1   force =     0.00093372   -0.00240832   -0.00028226
     atom   21 type  1   force =    -0.00093372   -0.00240832   -0.00028226
     atom   22 type  1   force =     0.00093374    0.00240828   -0.00028227
     atom   23 type  1   force =    -0.00093374    0.00240828   -0.00028227
     atom   24 type  1   force =     0.00093372   -0.00240832   -0.00028226

     Total force =     0.010436     Total SCF correction =     0.000088


     Computing stress (Cartesian axis) and pressure

          total   stress  (Ry/bohr**3)                   (kbar)     P=       20.12
   0.00010906   0.00000000   0.00000000           16.04        0.00        0.00
   0.00000000   0.00014388   0.00000000            0.00       21.17        0.00
   0.00000000   0.00000000   0.00015741            0.00        0.00       23.16

     Energy error            =      3.2E-04 Ry
     Gradient error          =      2.4E-03 Ry/Bohr

     number of scf cycles    =   7
     number of bfgs steps    =   6

     energy             old  =    -276.0104413195 Ry
     energy             new  =    -276.0107576149 Ry

     CASE: energy            _new < energy            _old

     new trust radius        =       0.0099405537 bohr
     new conv_thr            =       0.0000000032 Ry


ATOMIC_POSITIONS (crystal)
O                0.0000000000        0.6673799759        0.0582645534
O                0.0000000000        0.3326199770        0.5582644791
O                0.5000000000        0.1673799963        0.0582645620
O                0.5000000000        0.8326200024        0.5582644896
O                0.5000000000        0.8352454730        0.9336039865
O                0.5000000000        0.1647545437        0.4336040470
O                0.0000000000        0.3352454647        0.9336039687
O                0.0000000000        0.6647545180        0.4336040475
H                0.0000000000        0.6657696255        0.2055459062
H                0.0000000000        0.3342303119        0.7055457955
H                0.5000000000        0.1657696473        0.2055459108
H                0.5000000000        0.8342303426        0.7055458140
H                0.0000000000        0.5355520056        0.0129994993
H                0.0000000000        0.4644479872        0.5129994087
H                0.5000000000        0.0355520220        0.0129995014
H                0.5000000000        0.9644480084        0.5129994319
H                0.6928667960        0.7679252000        0.9837930760
H                0.3071331897        0.2320748370        0.4837930958
H                0.6928668103        0.2320748370        0.4837930958
H                0.3071332040        0.7679252000        0.9837930760
H                0.1928667974        0.2679251990        0.9837930738
H                0.8071331932        0.7320748132        0.4837930867
H                0.1928668068        0.7320748132        0.4837930867
H                0.8071332026        0.2679251990        0.9837930738



     Writing config-only to output data dir ./iceIh/iceIh.save/ :
     XML data file
     NEW-OLD atomic charge density approx. for the potential

     total cpu time spent up to now is      616.3 secs

     per-process dynamical memory:    58.2 Mb

     Self-consistent Calculation

     iteration #  1     ecut=    90.00 Ry     beta= 0.70
     Davidson diagonalization with overlap
     ethr =  1.00E-06,  avg # of iterations =  3.3

     Threshold (ethr) on eigenvalues was too large:
     Diagonalizing with lowered threshold

     Davidson diagonalization with overlap
     ethr =  9.93E-08,  avg # of iterations =  2.0

     total cpu time spent up to now is      635.3 secs

     total energy              =    -276.01099502 Ry
     estimated scf accuracy    <       0.00007074 Ry

     iteration #  2     ecut=    90.00 Ry     beta= 0.70
     Davidson diagonalization with overlap
     ethr =  1.11E-07,  avg # of iterations =  2.0

     total cpu time spent up to now is      643.2 secs

     total energy              =    -276.01100526 Ry
     estimated scf accuracy    <       0.00000306 Ry

     iteration #  3     ecut=    90.00 Ry     beta= 0.70
     Davidson diagonalization with overlap
     ethr =  4.77E-09,  avg # of iterations =  2.9

     total cpu time spent up to now is      652.6 secs

     total energy              =    -276.01100595 Ry
     estimated scf accuracy    <       0.00000093 Ry

     iteration #  4     ecut=    90.00 Ry     beta= 0.70
     Davidson diagonalization with overlap
     ethr =  1.45E-09,  avg # of iterations =  3.2

     total cpu time spent up to now is      661.5 secs

     total energy              =    -276.01100618 Ry
     estimated scf accuracy    <       0.00000008 Ry

     iteration #  5     ecut=    90.00 Ry     beta= 0.70
     Davidson diagonalization with overlap
     ethr =  1.30E-10,  avg # of iterations =  2.0

     total cpu time spent up to now is      670.0 secs

     total energy              =    -276.01100619 Ry
     estimated scf accuracy    <       0.00000001 Ry

     iteration #  6     ecut=    90.00 Ry     beta= 0.70
     Davidson diagonalization with overlap
     ethr =  1.73E-11,  avg # of iterations =  4.0

     total cpu time spent up to now is      679.5 secs

     End of self-consistent calculation

     Number of k-points >= 100: set verbosity='high' to print the bands.

     highest occupied level (ev):    -2.4933

!    total energy              =    -276.01100619 Ry
     estimated scf accuracy    <          3.3E-10 Ry

     The total energy is the sum of the following terms:
     one-electron contribution =    -217.00949369 Ry
     hartree contribution      =     131.11298714 Ry
     xc contribution           =     -67.96422241 Ry
     ewald contribution        =    -122.15027723 Ry

     convergence has been achieved in   6 iterations

     Forces acting on atoms (cartesian axes, Ry/au):

     atom    1 type  2   force =     0.00000000    0.00177191   -0.00075585
     atom    2 type  2   force =     0.00000000   -0.00177157   -0.00075627
     atom    3 type  2   force =     0.00000000    0.00177185   -0.00075593
     atom    4 type  2   force =     0.00000000   -0.00177165   -0.00075617
     atom    5 type  2   force =     0.00000000   -0.00079071    0.00049325
     atom    6 type  2   force =     0.00000000    0.00079065    0.00049318
     atom    7 type  2   force =     0.00000000   -0.00079073    0.00049327
     atom    8 type  2   force =     0.00000000    0.00079064    0.00049315
     atom    9 type  1   force =     0.00000000   -0.00047393   -0.00008185
     atom   10 type  1   force =     0.00000000    0.00047398   -0.00008153
     atom   11 type  1   force =     0.00000000   -0.00047393   -0.00008180
     atom   12 type  1   force =     0.00000000    0.00047395   -0.00008161
     atom   13 type  1   force =     0.00000000    0.00053427   -0.00017193
     atom   14 type  1   force =     0.00000000   -0.00053453   -0.00017175
     atom   15 type  1   force =     0.00000000    0.00053432   -0.00017190
     atom   16 type  1   force =     0.00000000   -0.00053448   -0.00017180
     atom   17 type  1   force =     0.00038984   -0.00108631    0.00025818
     atom   18 type  1   force =    -0.00038988    0.00108627    0.00025819
     atom   19 type  1   force =     0.00038988    0.00108627    0.00025819
     atom   20 type  1   force =    -0.00038984   -0.00108631    0.00025818
     atom   21 type  1   force =     0.00038983   -0.00108630    0.00025818
     atom   22 type  1   force =    -0.00038989    0.00108631    0.00025821
     atom   23 type  1   force =     0.00038989    0.00108631    0.00025821
     atom   24 type  1   force =    -0.00038983   -0.00108630    0.00025818

     Total force =     0.005630     Total SCF correction =     0.000059


     Computing stress (Cartesian axis) and pressure

          total   stress  (Ry/bohr**3)                   (kbar)     P=       20.37
   0.00012146   0.00000000   0.00000000           17.87        0.00        0.00
   0.00000000   0.00014466   0.00000000            0.00       21.28        0.00
   0.00000000   0.00000000   0.00014933            0.00        0.00       21.97

     Energy error            =      2.5E-04 Ry
     Gradient error          =      1.8E-03 Ry/Bohr

     number of scf cycles    =   8
     number of bfgs steps    =   7

     energy             old  =    -276.0107576149 Ry
     energy             new  =    -276.0110061890 Ry

     CASE: energy            _new < energy            _old

     new trust radius        =       0.0037480928 bohr
     new conv_thr            =       0.0000000025 Ry


ATOMIC_POSITIONS (crystal)
O                0.0000000000        0.6675505050        0.0582328736
O                0.0000000000        0.3324494769        0.5582327746
O                0.5000000000        0.1675505200        0.0582328766
O                0.5000000000        0.8324494942        0.5582327895
O                0.5000000000        0.8352632161        0.9338500818
O                0.5000000000        0.1647367911        0.4338501339
O                0.0000000000        0.3352632064        0.9338500649
O                0.0000000000        0.6647367675        0.4338501343
H                0.0000000000        0.6657935051        0.2055512135
H                0.0000000000        0.3342064360        0.7055511361
H                0.5000000000        0.1657935268        0.2055512232
H                0.5000000000        0.8342064648        0.7055511456
H                0.0000000000        0.5357321992        0.0128165960
H                0.0000000000        0.4642677813        0.5128165179
H                0.5000000000        0.0357322183        0.0128166017
H                0.5000000000        0.9642678051        0.5128165376
H                0.6927674601        0.7676622139        0.9837746638
H                0.3072325231        0.2323378179        0.4837746820
H                0.6927674769        0.2323378179        0.4837746820
H                0.3072325399        0.7676622139        0.9837746638
H                0.1927674603        0.2676622137        0.9837746604
H                0.8072325233        0.7323377976        0.4837746764
H                0.1927674767        0.7323377976        0.4837746764
H                0.8072325397        0.2676622137        0.9837746604



     Writing config-only to output data dir ./iceIh/iceIh.save/ :
     XML data file
     NEW-OLD atomic charge density approx. for the potential

     total cpu time spent up to now is      687.7 secs

     per-process dynamical memory:    58.2 Mb

     Self-consistent Calculation

     iteration #  1     ecut=    90.00 Ry     beta= 0.70
     Davidson diagonalization with overlap
     ethr =  1.00E-06,  avg # of iterations =  3.0

     Threshold (ethr) on eigenvalues was too large:
     Diagonalizing with lowered threshold

     Davidson diagonalization with overlap
     ethr =  1.48E-08,  avg # of iterations =  3.0

     total cpu time spent up to now is      706.9 secs

     total energy              =    -276.01104441 Ry
     estimated scf accuracy    <       0.00001297 Ry

     iteration #  2     ecut=    90.00 Ry     beta= 0.70
     Davidson diagonalization with overlap
     ethr =  2.03E-08,  avg # of iterations =  2.6

     total cpu time spent up to now is      716.0 secs

     total energy              =    -276.01104650 Ry
     estimated scf accuracy    <       0.00000271 Ry

     iteration #  3     ecut=    90.00 Ry     beta= 0.70
     Davidson diagonalization with overlap
     ethr =  4.24E-09,  avg # of iterations =  3.0

     total cpu time spent up to now is      725.6 secs

     total energy              =    -276.01104729 Ry
     estimated scf accuracy    <       0.00000033 Ry

     iteration #  4     ecut=    90.00 Ry     beta= 0.70
     Davidson diagonalization with overlap
     ethr =  5.08E-10,  avg # of iterations =  2.4

     total cpu time spent up to now is      733.0 secs

     total energy              =    -276.01104731 Ry
     estimated scf accuracy    <       0.00000003 Ry

     iteration #  5     ecut=    90.00 Ry     beta= 0.70
     Davidson diagonalization with overlap
     ethr =  4.51E-11,  avg # of iterations =  3.7

     total cpu time spent up to now is      744.0 secs

     total energy              =    -276.01104732 Ry
     estimated scf accuracy    <       0.00000003 Ry

     iteration #  6     ecut=    90.00 Ry     beta= 0.70
     Davidson diagonalization with overlap
     ethr =  4.51E-11,  avg # of iterations =  2.5

     total cpu time spent up to now is      752.4 secs

     End of self-consistent calculation

     Number of k-points >= 100: set verbosity='high' to print the bands.

     highest occupied level (ev):    -2.4947

!    total energy              =    -276.01104732 Ry
     estimated scf accuracy    <          4.3E-10 Ry

     The total energy is the sum of the following terms:
     one-electron contribution =    -216.99576357 Ry
     hartree contribution      =     131.10670555 Ry
     xc contribution           =     -67.96271984 Ry
     ewald contribution        =    -122.15926946 Ry

     convergence has been achieved in   6 iterations

     Forces acting on atoms (cartesian axes, Ry/au):

     atom    1 type  2   force =     0.00000000    0.00104877   -0.00051442
     atom    2 type  2   force =     0.00000000   -0.00104893   -0.00051412
     atom    3 type  2   force =     0.00000000    0.00104882   -0.00051437
     atom    4 type  2   force =     0.00000000   -0.00104889   -0.00051418
     atom    5 type  2   force =     0.00000000   -0.00112812   -0.00007089
     atom    6 type  2   force =     0.00000000    0.00112816   -0.00007087
     atom    7 type  2   force =     0.00000000   -0.00112810   -0.00007089
     atom    8 type  2   force =     0.00000000    0.00112819   -0.00007087
     atom    9 type  1   force =     0.00000000   -0.00047705   -0.00040854
     atom   10 type  1   force =     0.00000000    0.00047712   -0.00040872
     atom   11 type  1   force =     0.00000000   -0.00047706   -0.00040858
     atom   12 type  1   force =     0.00000000    0.00047709   -0.00040868
     atom   13 type  1   force =     0.00000000    0.00057734    0.00024952
     atom   14 type  1   force =     0.00000000   -0.00057719    0.00024955
     atom   15 type  1   force =     0.00000000    0.00057730    0.00024952
     atom   16 type  1   force =     0.00000000   -0.00057724    0.00024953
     atom   17 type  1   force =     0.00062777   -0.00057698    0.00037214
     atom   18 type  1   force =    -0.00062775    0.00057693    0.00037211
     atom   19 type  1   force =     0.00062775    0.00057693    0.00037211
     atom   20 type  1   force =    -0.00062777   -0.00057698    0.00037214
     atom   21 type  1   force =     0.00062778   -0.00057698    0.00037214
     atom   22 type  1   force =    -0.00062773    0.00057694    0.00037212
     atom   23 type  1   force =     0.00062773    0.00057694    0.00037212
     atom   24 type  1   force =    -0.00062778   -0.00057698    0.00037214

     Total force =     0.004545     Total SCF correction =     0.000035


     Computing stress (Cartesian axis) and pressure

          total   stress  (Ry/bohr**3)                   (kbar)     P=       20.18
   0.00012600   0.00000000   0.00000000           18.54        0.00        0.00
   0.00000000   0.00014221  -0.00000000            0.00       20.92       -0.00
   0.00000000  -0.00000000   0.00014341            0.00       -0.00       21.10

     Energy error            =      4.1E-05 Ry
     Gradient error          =      1.1E-03 Ry/Bohr

     number of scf cycles    =   9
     number of bfgs steps    =   8

     energy             old  =    -276.0110061890 Ry
     energy             new  =    -276.0110473228 Ry

     CASE: energy            _new < energy            _old

     new trust radius        =       0.0031356887 bohr
     new conv_thr            =       0.0000000010 Ry


ATOMIC_POSITIONS (crystal)
O                0.0000000000        0.6677410293        0.0581708606
O                0.0000000000        0.3322589438        0.5581707947
O                0.5000000000        0.1677410473        0.0581708686
O                0.5000000000        0.8322589632        0.5581708021
O                0.5000000000        0.8351561557        0.9340062449
O                0.5000000000        0.1648438514        0.4340062945
O                0.0000000000        0.3351561471        0.9340062273
O                0.0000000000        0.6648438329        0.4340062961
H                0.0000000000        0.6657672044        0.2054991187
H                0.0000000000        0.3342327455        0.7054990333
H                0.5000000000        0.1657672252        0.2054991256
H                0.5000000000        0.8342327702        0.7054990431
H                0.0000000000        0.5359218352        0.0127242840
H                0.0000000000        0.4640781626        0.5127242132
H                0.5000000000        0.0359218500        0.0127242915
H                0.5000000000        0.9640781807        0.5127242297
H                0.6928007943        0.7674386278        0.9837997875
H                0.3071991919        0.2325613953        0.4837998004
H                0.6928008081        0.2325613953        0.4837998004
H                0.3071992057        0.7674386278        0.9837997875
H                0.1928007965        0.2674386269        0.9837997834
H                0.8071991940        0.7325613777        0.4837997977
H                0.1928008060        0.7325613777        0.4837997977
H                0.8071992035        0.2674386269        0.9837997834



     Writing config-only to output data dir ./iceIh/iceIh.save/ :
     XML data file
     NEW-OLD atomic charge density approx. for the potential

     total cpu time spent up to now is      760.5 secs

     per-process dynamical memory:    58.2 Mb

     Self-consistent Calculation

     iteration #  1     ecut=    90.00 Ry     beta= 0.70
     Davidson diagonalization with overlap
     ethr =  1.00E-06,  avg # of iterations =  2.0

     Threshold (ethr) on eigenvalues was too large:
     Diagonalizing with lowered threshold

     Davidson diagonalization with overlap
     ethr =  1.64E-08,  avg # of iterations =  3.0

     total cpu time spent up to now is      779.0 secs

     total energy              =    -276.01107332 Ry
     estimated scf accuracy    <       0.00001314 Ry

     iteration #  2     ecut=    90.00 Ry     beta= 0.70
     Davidson diagonalization with overlap
     ethr =  2.05E-08,  avg # of iterations =  3.0

     total cpu time spent up to now is      788.9 secs

     total energy              =    -276.01107545 Ry
     estimated scf accuracy    <       0.00000723 Ry

     iteration #  3     ecut=    90.00 Ry     beta= 0.70
     Davidson diagonalization with overlap
     ethr =  1.13E-08,  avg # of iterations =  3.0

     total cpu time spent up to now is      797.9 secs

     total energy              =    -276.01107725 Ry
     estimated scf accuracy    <       0.00000017 Ry

     iteration #  4     ecut=    90.00 Ry     beta= 0.70
     Davidson diagonalization with overlap
     ethr =  2.60E-10,  avg # of iterations =  4.0

     total cpu time spent up to now is      808.0 secs

     total energy              =    -276.01107726 Ry
     estimated scf accuracy    <       0.00000011 Ry

     iteration #  5     ecut=    90.00 Ry     beta= 0.70
     Davidson diagonalization with overlap
     ethr =  1.68E-10,  avg # of iterations =  4.0

     total cpu time spent up to now is      818.8 secs

     total energy              =    -276.01107730 Ry
     estimated scf accuracy    <       0.00000005 Ry

     iteration #  6     ecut=    90.00 Ry     beta= 0.70
     Davidson diagonalization with overlap
     ethr =  7.66E-11,  avg # of iterations =  2.9

     total cpu time spent up to now is      827.0 secs

     End of self-consistent calculation

     Number of k-points >= 100: set verbosity='high' to print the bands.

     highest occupied level (ev):    -2.4962

!    total energy              =    -276.01107731 Ry
     estimated scf accuracy    <          7.0E-10 Ry

     The total energy is the sum of the following terms:
     one-electron contribution =    -216.98108357 Ry
     hartree contribution      =     131.10003434 Ry
     xc contribution           =     -67.96120957 Ry
     ewald contribution        =    -122.16881851 Ry

     convergence has been achieved in   6 iterations

     Forces acting on atoms (cartesian axes, Ry/au):

     atom    1 type  2   force =     0.00000000    0.00016278   -0.00027895
     atom    2 type  2   force =     0.00000000   -0.00016263   -0.00027917
     atom    3 type  2   force =     0.00000000    0.00016274   -0.00027900
     atom    4 type  2   force =     0.00000000   -0.00016267   -0.00027912
     atom    5 type  2   force =     0.00000000   -0.00112320   -0.00035438
     atom    6 type  2   force =     0.00000000    0.00112317   -0.00035444
     atom    7 type  2   force =     0.00000000   -0.00112321   -0.00035436
     atom    8 type  2   force =     0.00000000    0.00112316   -0.00035445
     atom    9 type  1   force =     0.00000000   -0.00021577   -0.00034761
     atom   10 type  1   force =     0.00000000    0.00021582   -0.00034743
     atom   11 type  1   force =     0.00000000   -0.00021578   -0.00034758
     atom   12 type  1   force =     0.00000000    0.00021580   -0.00034746
     atom   13 type  1   force =     0.00000000    0.00050656    0.00028919
     atom   14 type  1   force =     0.00000000   -0.00050669    0.00028931
     atom   15 type  1   force =     0.00000000    0.00050658    0.00028921
     atom   16 type  1   force =     0.00000000   -0.00050666    0.00028927
     atom   17 type  1   force =     0.00046627   -0.00017781    0.00034587
     atom   18 type  1   force =    -0.00046630    0.00017780    0.00034588
     atom   19 type  1   force =     0.00046630    0.00017780    0.00034588
     atom   20 type  1   force =    -0.00046627   -0.00017781    0.00034587
     atom   21 type  1   force =     0.00046626   -0.00017781    0.00034586
     atom   22 type  1   force =    -0.00046630    0.00017782    0.00034589
     atom   23 type  1   force =     0.00046630    0.00017782    0.00034589
     atom   24 type  1   force =    -0.00046626   -0.00017781    0.00034586

     Total force =     0.003308     Total SCF correction =     0.000039


     Computing stress (Cartesian axis) and pressure

          total   stress  (Ry/bohr**3)                   (kbar)     P=       20.00
   0.00012899   0.00000000   0.00000000           18.97        0.00        0.00
   0.00000000   0.00013915   0.00000000            0.00       20.47        0.00
   0.00000000   0.00000000   0.00013977            0.00        0.00       20.56

     Energy error            =      3.0E-05 Ry
     Gradient error          =      1.1E-03 Ry/Bohr

[...]
     atom   18 type  1   force =     0.00017431    0.00015422   -0.00000555
     atom   19 type  1   force =    -0.00017431    0.00015422   -0.00000555
     atom   20 type  1   force =     0.00017409   -0.00015434   -0.00000543
     atom   21 type  1   force =    -0.00017403   -0.00015438   -0.00000542
     atom   22 type  1   force =     0.00017437    0.00015419   -0.00000556
     atom   23 type  1   force =    -0.00017437    0.00015419   -0.00000556
     atom   24 type  1   force =     0.00017403   -0.00015438   -0.00000542

     Total force =     0.001454     Total SCF correction =     0.000042


     Computing stress (Cartesian axis) and pressure

          total   stress  (Ry/bohr**3)                   (kbar)     P=       19.98
   0.00013293   0.00000000   0.00000000           19.55        0.00        0.00
   0.00000000   0.00013715  -0.00000000            0.00       20.18       -0.00
   0.00000000  -0.00000000   0.00013741            0.00       -0.00       20.21

     Energy error            =      5.6E-06 Ry
     Gradient error          =      3.8E-04 Ry/Bohr

     number of scf cycles    =  31
     number of bfgs steps    =  30

     energy             old  =    -276.0112239184 Ry
     energy             new  =    -276.0112295252 Ry

     CASE: energy            _new < energy            _old

     new trust radius        =       0.0058389411 bohr
     new conv_thr            =       0.0000000010 Ry


ATOMIC_POSITIONS (crystal)
O                0.0000000000        0.6626498621        0.0580036522
O                0.0000000000        0.3373500295        0.5580038632
O                0.5000000000        0.1626498478        0.0580036622
O                0.5000000000        0.8373500490        0.5580038328
O                0.5000000000        0.8293990839        0.9338215648
O                0.5000000000        0.1706009530        0.4338215845
O                0.0000000000        0.3293991228        0.9338215878
O                0.0000000000        0.6706009595        0.4338215704
H                0.0000000000        0.6637862346        0.2053069386
H                0.0000000000        0.3362137986        0.7053068992
H                0.5000000000        0.1637861611        0.2053069012
H                0.5000000000        0.8362137592        0.7053069152
H                0.0000000000        0.5303862454        0.0144739548
H                0.0000000000        0.4696138021        0.5144739446
H                0.5000000000        0.0303862036        0.0144738873
H                0.5000000000        0.9696137964        0.5144739882
H                0.6929914517        0.7615447576        0.9831969239
H                0.3070085830        0.2384552616        0.4831969072
H                0.6929914170        0.2384552616        0.4831969072
H                0.3070085483        0.7615447576        0.9831969239
H                0.1929914473        0.2615447728        0.9831969378
H                0.8070085837        0.7384552538        0.4831968907
H                0.1929914163        0.7384552538        0.4831968907
H                0.8070085527        0.2615447728        0.9831969378



     Writing config-only to output data dir ./iceIh/iceIh.save/ :
     XML data file
     NEW-OLD atomic charge density approx. for the potential

     total cpu time spent up to now is     2256.9 secs

     per-process dynamical memory:    58.2 Mb

     Self-consistent Calculation

     iteration #  1     ecut=    90.00 Ry     beta= 0.70
     Davidson diagonalization with overlap
     ethr =  1.00E-06,  avg # of iterations =  3.0

     Threshold (ethr) on eigenvalues was too large:
     Diagonalizing with lowered threshold

     Davidson diagonalization with overlap
     ethr =  2.38E-08,  avg # of iterations =  3.0

     total cpu time spent up to now is     2277.4 secs

     total energy              =    -276.01123073 Ry
     estimated scf accuracy    <       0.00001899 Ry

     iteration #  2     ecut=    90.00 Ry     beta= 0.70
     Davidson diagonalization with overlap
     ethr =  2.97E-08,  avg # of iterations =  2.0

     total cpu time spent up to now is     2284.9 secs

     total energy              =    -276.01123342 Ry
     estimated scf accuracy    <       0.00000092 Ry

     iteration #  3     ecut=    90.00 Ry     beta= 0.70
     Davidson diagonalization with overlap
     ethr =  1.44E-09,  avg # of iterations =  2.6

     total cpu time spent up to now is     2294.4 secs

     total energy              =    -276.01123362 Ry
     estimated scf accuracy    <       0.00000014 Ry

     iteration #  4     ecut=    90.00 Ry     beta= 0.70
     Davidson diagonalization with overlap
     ethr =  2.14E-10,  avg # of iterations =  3.0

     total cpu time spent up to now is     2304.0 secs

     total energy              =    -276.01123366 Ry
     estimated scf accuracy    <       0.00000003 Ry

     iteration #  5     ecut=    90.00 Ry     beta= 0.70
     Davidson diagonalization with overlap
     ethr =  4.74E-11,  avg # of iterations =  2.1

     total cpu time spent up to now is     2312.5 secs

     total energy              =    -276.01123367 Ry
     estimated scf accuracy    <          1.5E-09 Ry

     iteration #  6     ecut=    90.00 Ry     beta= 0.70
     Davidson diagonalization with overlap
     ethr =  2.32E-12,  avg # of iterations =  3.0

     total cpu time spent up to now is     2322.4 secs

     End of self-consistent calculation

     Number of k-points >= 100: set verbosity='high' to print the bands.

     highest occupied level (ev):    -2.5023

!    total energy              =    -276.01123367 Ry
     estimated scf accuracy    <          1.9E-10 Ry

     The total energy is the sum of the following terms:
     one-electron contribution =    -216.91591282 Ry
     hartree contribution      =     131.06585702 Ry
     xc contribution           =     -67.96033070 Ry
     ewald contribution        =    -122.20084718 Ry

     convergence has been achieved in   6 iterations

     Forces acting on atoms (cartesian axes, Ry/au):

     atom    1 type  2   force =     0.00000000    0.00004503    0.00007518
     atom    2 type  2   force =     0.00000000   -0.00004277    0.00007192
     atom    3 type  2   force =     0.00000000    0.00004456    0.00007462
     atom    4 type  2   force =     0.00000000   -0.00004326    0.00007248
     atom    5 type  2   force =     0.00000000    0.00005310   -0.00000828
     atom    6 type  2   force =     0.00000000   -0.00005361   -0.00000876
     atom    7 type  2   force =     0.00000000    0.00005295   -0.00000818
     atom    8 type  2   force =     0.00000000   -0.00005375   -0.00000884
     atom    9 type  1   force =     0.00000000   -0.00002530    0.00013491
     atom   10 type  1   force =     0.00000000    0.00002522    0.00013703
     atom   11 type  1   force =     0.00000000   -0.00002526    0.00013527
     atom   12 type  1   force =     0.00000000    0.00002525    0.00013666
     atom   13 type  1   force =     0.00000000   -0.00004179   -0.00009009
     atom   14 type  1   force =     0.00000000    0.00003996   -0.00008942
     atom   15 type  1   force =     0.00000000   -0.00004139   -0.00008994
     atom   16 type  1   force =     0.00000000    0.00004035   -0.00008958
     atom   17 type  1   force =    -0.00005661   -0.00004919   -0.00005574
     atom   18 type  1   force =     0.00005633    0.00004929   -0.00005551
     atom   19 type  1   force =    -0.00005633    0.00004929   -0.00005551
     atom   20 type  1   force =     0.00005661   -0.00004919   -0.00005574
     atom   21 type  1   force =    -0.00005668   -0.00004913   -0.00005577
     atom   22 type  1   force =     0.00005625    0.00004937   -0.00005547
     atom   23 type  1   force =    -0.00005625    0.00004937   -0.00005547
     atom   24 type  1   force =     0.00005668   -0.00004913   -0.00005577

     Total force =     0.000476     Total SCF correction =     0.000034


     Computing stress (Cartesian axis) and pressure

          total   stress  (Ry/bohr**3)                   (kbar)     P=       19.79
   0.00013289   0.00000000   0.00000000           19.55        0.00        0.00
   0.00000000   0.00013583   0.00000000            0.00       19.98        0.00
   0.00000000   0.00000000   0.00013489            0.00        0.00       19.84

     Energy error            =      4.1E-06 Ry
     Gradient error          =      1.4E-04 Ry/Bohr

     number of scf cycles    =  32
     number of bfgs steps    =  31

     energy             old  =    -276.0112295252 Ry
     energy             new  =    -276.0112336675 Ry

     CASE: energy            _new < energy            _old

     new trust radius        =       0.0038871076 bohr
     new conv_thr            =       0.0000000010 Ry


ATOMIC_POSITIONS (crystal)
O                0.0000000000        0.6624093028        0.0580094583
O                0.0000000000        0.3375907846        0.5580093756
O                0.5000000000        0.1624092457        0.0580094163
O                0.5000000000        0.8375907612        0.5580093959
O                0.5000000000        0.8291719859        0.9338308750
O                0.5000000000        0.1708280082        0.4338308485
O                0.0000000000        0.3291720130        0.9338309088
O                0.0000000000        0.6708280028        0.4338308261
H                0.0000000000        0.6636927411        0.2053184215
H                0.0000000000        0.3363072875        0.7053185805
H                0.5000000000        0.1636926675        0.2053184162
H                0.5000000000        0.8363072479        0.7053185623
H                0.0000000000        0.5301190468        0.0145368248
H                0.0000000000        0.4698808438        0.5145368778
H                0.5000000000        0.0301190380        0.0145367689
H                0.5000000000        0.9698808711        0.5145369087
H                0.6929714920        0.7612684584        0.9831521984
H                0.3070285038        0.2387315693        0.4831522026
H                0.6929714962        0.2387315693        0.4831522026
H                0.3070285080        0.7612684584        0.9831521984
H                0.1929714770        0.2612684797        0.9831522105
H                0.8070284929        0.7387315686        0.4831521888
H                0.1929715071        0.7387315686        0.4831521888
H                0.8070285230        0.2612684797        0.9831522105



     Writing config-only to output data dir ./iceIh/iceIh.save/ :
     XML data file
     NEW-OLD atomic charge density approx. for the potential

     total cpu time spent up to now is     2330.5 secs

     per-process dynamical memory:    58.2 Mb

     Self-consistent Calculation

     iteration #  1     ecut=    90.00 Ry     beta= 0.70
     Davidson diagonalization with overlap
     ethr =  1.00E-06,  avg # of iterations =  3.0

     Threshold (ethr) on eigenvalues was too large:
     Diagonalizing with lowered threshold

     Davidson diagonalization with overlap
     ethr =  1.03E-08,  avg # of iterations =  3.3

     total cpu time spent up to now is     2351.4 secs

     total energy              =    -276.01123297 Ry
     estimated scf accuracy    <       0.00000947 Ry

     iteration #  2     ecut=    90.00 Ry     beta= 0.70
     Davidson diagonalization with overlap
     ethr =  1.48E-08,  avg # of iterations =  2.0

     total cpu time spent up to now is     2359.0 secs

     total energy              =    -276.01123435 Ry
     estimated scf accuracy    <       0.00000044 Ry

     iteration #  3     ecut=    90.00 Ry     beta= 0.70
     Davidson diagonalization with overlap
     ethr =  6.84E-10,  avg # of iterations =  2.6

     total cpu time spent up to now is     2368.3 secs

     total energy              =    -276.01123444 Ry
     estimated scf accuracy    <       0.00000006 Ry

     iteration #  4     ecut=    90.00 Ry     beta= 0.70
     Davidson diagonalization with overlap
     ethr =  9.59E-11,  avg # of iterations =  3.0

     total cpu time spent up to now is     2378.4 secs

     total energy              =    -276.01123446 Ry
     estimated scf accuracy    <       0.00000002 Ry

     iteration #  5     ecut=    90.00 Ry     beta= 0.70
     Davidson diagonalization with overlap
     ethr =  3.38E-11,  avg # of iterations =  2.1

     total cpu time spent up to now is     2386.3 secs

     End of self-consistent calculation

     Number of k-points >= 100: set verbosity='high' to print the bands.

     highest occupied level (ev):    -2.5025

!    total energy              =    -276.01123446 Ry
     estimated scf accuracy    <          7.5E-10 Ry

     The total energy is the sum of the following terms:
     one-electron contribution =    -216.90805444 Ry
     hartree contribution      =     131.06206747 Ry
     xc contribution           =     -67.95996708 Ry
     ewald contribution        =    -122.20528041 Ry

     convergence has been achieved in   5 iterations

     Forces acting on atoms (cartesian axes, Ry/au):

     atom    1 type  2   force =     0.00000000    0.00000850    0.00008322
     atom    2 type  2   force =     0.00000000   -0.00001061    0.00008624
     atom    3 type  2   force =     0.00000000    0.00000897    0.00008376
     atom    4 type  2   force =     0.00000000   -0.00001016    0.00008570
     atom    5 type  2   force =     0.00000000    0.00000911   -0.00003064
     atom    6 type  2   force =     0.00000000   -0.00000871   -0.00003021
     atom    7 type  2   force =     0.00000000    0.00000924   -0.00003073
     atom    8 type  2   force =     0.00000000   -0.00000856   -0.00003011
     atom    9 type  1   force =     0.00000000   -0.00005966    0.00003839
     atom   10 type  1   force =     0.00000000    0.00005973    0.00003628
     atom   11 type  1   force =     0.00000000   -0.00005965    0.00003804
     atom   12 type  1   force =     0.00000000    0.00005972    0.00003662
     atom   13 type  1   force =     0.00000000    0.00003409   -0.00001089
     atom   14 type  1   force =     0.00000000   -0.00003222   -0.00001153
     atom   15 type  1   force =     0.00000000    0.00003370   -0.00001099
     atom   16 type  1   force =     0.00000000   -0.00003262   -0.00001143
     atom   17 type  1   force =     0.00000019   -0.00000935   -0.00004011
     atom   18 type  1   force =     0.00000010    0.00000919   -0.00004032
     atom   19 type  1   force =    -0.00000010    0.00000919   -0.00004032
     atom   20 type  1   force =    -0.00000019   -0.00000935   -0.00004011
     atom   21 type  1   force =     0.00000027   -0.00000942   -0.00004009
     atom   22 type  1   force =     0.00000018    0.00000914   -0.00004034
     atom   23 type  1   force =    -0.00000018    0.00000914   -0.00004034
     atom   24 type  1   force =    -0.00000027   -0.00000942   -0.00004009

     Total force =     0.000267     Total SCF correction =     0.000066
     SCF correction compared to forces is large: reduce conv_thr to get better values


     Computing stress (Cartesian axis) and pressure

          total   stress  (Ry/bohr**3)                   (kbar)     P=       19.75
   0.00013323   0.00000000   0.00000000           19.60        0.00        0.00
   0.00000000   0.00013549  -0.00000000            0.00       19.93       -0.00
   0.00000000  -0.00000000   0.00013411            0.00       -0.00       19.73

     Energy error            =      8.0E-07 Ry
     Gradient error          =      8.6E-05 Ry/Bohr

     bfgs converged in  33 scf cycles and  32 bfgs steps
     (criteria: energy <  1.0E-04 Ry, force <  1.0E-04 Ry/Bohr)

     End of BFGS Geometry Optimization

     Final energy             =    -276.0112344640 Ry

     File ./iceIh/iceIh.bfgs deleted, as requested
Begin final coordinates

ATOMIC_POSITIONS (crystal)
O                0.0000000000        0.6624093028        0.0580094583
O                0.0000000000        0.3375907846        0.5580093756
O                0.5000000000        0.1624092457        0.0580094163
O                0.5000000000        0.8375907612        0.5580093959
O                0.5000000000        0.8291719859        0.9338308750
O                0.5000000000        0.1708280082        0.4338308485
O                0.0000000000        0.3291720130        0.9338309088
O                0.0000000000        0.6708280028        0.4338308261
H                0.0000000000        0.6636927411        0.2053184215
H                0.0000000000        0.3363072875        0.7053185805
H                0.5000000000        0.1636926675        0.2053184162
H                0.5000000000        0.8363072479        0.7053185623
H                0.0000000000        0.5301190468        0.0145368248
H                0.0000000000        0.4698808438        0.5145368778
H                0.5000000000        0.0301190380        0.0145367689
H                0.5000000000        0.9698808711        0.5145369087
H                0.6929714920        0.7612684584        0.9831521984
H                0.3070285038        0.2387315693        0.4831522026
H                0.6929714962        0.2387315693        0.4831522026
H                0.3070285080        0.7612684584        0.9831521984
H                0.1929714770        0.2612684797        0.9831522105
H                0.8070284929        0.7387315686        0.4831521888
H                0.1929715071        0.7387315686        0.4831521888
H                0.8070285230        0.2612684797        0.9831522105
End final coordinates



     Writing all to output data dir ./iceIh/iceIh.save/ :
     XML data file, charge density, pseudopotentials, collected wavefunctions

     init_run     :      4.18s CPU      4.28s WALL (       1 calls)
     electrons    :   2087.43s CPU   2123.99s WALL (      33 calls)
     update_pot   :      0.37s CPU      0.42s WALL (      32 calls)
     forces       :     16.45s CPU     16.53s WALL (      33 calls)
     stress       :    244.03s CPU    244.19s WALL (      33 calls)

     Called by init_run:
     wfcinit      :      3.73s CPU      3.80s WALL (       1 calls)
     potinit      :      0.03s CPU      0.04s WALL (       1 calls)
     hinit0       :      0.35s CPU      0.35s WALL (       1 calls)

     Called by electrons:
     c_bands      :   1860.54s CPU   1892.81s WALL (     220 calls)
     sum_band     :    223.72s CPU    225.95s WALL (     220 calls)
     v_of_rho     :      2.22s CPU      2.24s WALL (     227 calls)
     newd         :      0.42s CPU      0.43s WALL (     227 calls)
     mix_rho      :      0.29s CPU      0.29s WALL (     220 calls)

     Called by c_bands:
     init_us_2    :     26.85s CPU     27.77s WALL (   58305 calls)
     cegterg      :   1787.46s CPU   1804.42s WALL (   25300 calls)

     Called by *egterg:
     cdiaghg      :    162.78s CPU    163.53s WALL (   92146 calls)
     h_psi        :   1350.60s CPU   1365.53s WALL (   98931 calls)
     s_psi        :     51.71s CPU     52.10s WALL (   98931 calls)
     g_psi        :      4.71s CPU      4.72s WALL (   73516 calls)

     Called by h_psi:
     h_psi:calbec :     79.74s CPU     80.56s WALL (   98931 calls)
     vloc_psi     :   1208.48s CPU   1221.90s WALL (   98931 calls)
     add_vuspsi   :     54.06s CPU     54.59s WALL (   98931 calls)

     General routines
     calbec       :    113.23s CPU    114.35s WALL (  143206 calls)
     fft          :      1.53s CPU      1.54s WALL (    2819 calls)
     ffts         :      0.10s CPU      0.10s WALL (     220 calls)
     fftw         :   1270.11s CPU   1283.68s WALL ( 5850176 calls)

     Parallel routines

     PWSCF        :  39m18.19s CPU  40m 3.37s WALL


   This run was terminated on:  21:18: 1  31Mar2026            

=------------------------------------------------------------------------------=
   JOB DONE.
=------------------------------------------------------------------------------=
