
     Program PWSCF v.7.3.1 starts on 31Mar2026 at 21:18: 3 

     This program is part of the open-source Quantum ESPRESSO suite
     for quantum simulation of materials; please cite
         "P. Giannozzi et al., J. Phys.:Condens. Matter 21 395502 (2009);
         "P. Giannozzi et al., J. Phys.:Condens. Matter 29 465901 (2017);
         "P. Giannozzi et al., J. Chem. Phys. 152 154105 (2020);
          URL http://www.quantum-espresso.org", 
     in publications or presentations arising from this work. More details at
     http://www.quantum-espresso.org/quote

     Parallel version (MPI), running on   128 processors

     MPI processes distributed on     1 nodes
     495588 MiB available memory on the printing compute node when the environment starts

     Waiting for input...
     Reading input from standard input

     Current dimensions of program PWSCF are:
     Max number of different atomic species (ntypx) = 10
     Max number of k-points (npk) =  40000
     Max angular momentum in pseudopotentials (lmaxx) =  4
     Found identity + ( -0.5000 -0.5000  0.0000) symmetry
     This is a supercell, fractional translations are disabled

     K-points division:     npool     =       4
     R & G space division:  proc/nbgrp/npool/nimage =      32
     Subspace diagonalization in iterative solution of the eigenvalue problem:
     a serial algorithm will be used


     Parallelization info
     --------------------
     sticks:   dense  smooth     PW     G-vecs:    dense   smooth      PW
     Min         100     100     27                 5294     5294     769
     Max         101     101     28                 5299     5299     776
     Sum        3221    3221    889               169511   169511   24729

     Using Slab Decomposition



     bravais-lattice index     =            8
     lattice parameter (alat)  =       8.0481  a.u.
     unit-cell volume          =    1469.7521 (a.u.)^3
     number of atoms/cell      =           24
     number of atomic types    =            2
     number of electrons       =        64.00
     number of Kohn-Sham states=           32
     kinetic-energy cutoff     =      90.0000  Ry
     charge density cutoff     =     360.0000  Ry
     scf convergence threshold =      1.0E-07
     mixing beta               =       0.7000
     number of iterations used =            8  plain     mixing
     energy convergence thresh.=      1.0E-04
     force convergence thresh. =      1.0E-04
     Exchange-correlation=  SLA  PW   PBE  PBE
                           (   1   4   3   4   0   0   0)
     nstep                     =           50


     celldm(1)=   8.048139  celldm(2)=   1.732119  celldm(3)=   1.627721
     celldm(4)=   0.000000  celldm(5)=   0.000000  celldm(6)=   0.000000

     crystal axes: (cart. coord. in units of alat)
               a(1) = (   1.000000   0.000000   0.000000 )  
               a(2) = (   0.000000   1.732119   0.000000 )  
               a(3) = (   0.000000   0.000000   1.627721 )  

     reciprocal axes: (cart. coord. in units 2 pi/alat)
               b(1) = (  1.000000  0.000000  0.000000 )  
               b(2) = (  0.000000  0.577328  0.000000 )  
               b(3) = (  0.000000  0.000000  0.614356 )  


     PseudoPot. # 1 for H  read from file:
     ./H.pbe-van_ak.UPF
     MD5 check sum: 077eb6d537518a38cb46c6de387227b7
     Pseudo is Ultrasoft, Zval =  1.0
     Generated by new atomic code, or converted to UPF format
     Using radial grid of  615 points,  1 beta functions with: 
                l(1) =   0
     Q(r) pseudized with  8 coefficients,  rinner =    0.800

     PseudoPot. # 2 for O  read from file:
     ./O.pbe-van_ak.UPF
     MD5 check sum: 78c19812648e8988a0fe644b0f25305e
     Pseudo is Ultrasoft, Zval =  6.0
     Generated by new atomic code, or converted to UPF format
     Using radial grid of  737 points,  4 beta functions with: 
                l(1) =   0
                l(2) =   0
                l(3) =   1
                l(4) =   1
     Q(r) pseudized with  8 coefficients,  rinner =    0.800   0.800   0.800


     atomic species   valence    mass     pseudopotential
     H                 1.00     1.00800     H ( 1.00)
     O                 6.00    16.00000     O ( 1.00)

      2 Sym. Ops. (no inversion) found



   Cartesian axes

     site n.     atom                  positions (alat units)
         1        O      tau(   1) = (   0.0000000   1.1515127   0.1027092  )
         2        O      tau(   2) = (   0.0000000   0.5806063   0.9165697  )
         3        O      tau(   3) = (   0.5000000   0.2854532   0.1027092  )
         4        O      tau(   4) = (   0.5000000   1.4466659   0.9165697  )
         5        O      tau(   5) = (   0.5000000   1.4298643   1.5250118  )
         6        O      tau(   6) = (   0.5000000   0.3022548   0.7111513  )
         7        O      tau(   7) = (   0.0000000   0.5638048   1.5250118  )
         8        O      tau(   8) = (   0.0000000   1.1683143   0.7111513  )
         9        H      tau(   9) = (   0.0000000   1.1494343   0.3195216  )
        10        H      tau(  10) = (   0.0000000   0.5826848   1.1333822  )
        11        H      tau(  11) = (   0.5000000   0.2833747   0.3195216  )
        12        H      tau(  12) = (   0.5000000   1.4487443   1.1333822  )
        13        H      tau(  13) = (   0.0000000   0.9289355   0.0297873  )
        14        H      tau(  14) = (   0.0000000   0.8031836   0.8436478  )
        15        H      tau(  15) = (   0.5000000   0.0628759   0.0297873  )
        16        H      tau(  16) = (   0.5000000   1.6692431   0.8436478  )
        17        H      tau(  17) = (   0.6766000   1.3420459   1.5979337  )
        18        H      tau(  18) = (   0.3234000   0.3900732   0.7840732  )
        19        H      tau(  19) = (   0.6766000   0.3900732   0.7840732  )
        20        H      tau(  20) = (   0.3234000   1.3420459   1.5979337  )
        21        H      tau(  21) = (   0.1766000   0.4759863   1.5979337  )
        22        H      tau(  22) = (   0.8234000   1.2561327   0.7840732  )
        23        H      tau(  23) = (   0.1766000   1.2561327   0.7840732  )
        24        H      tau(  24) = (   0.8234000   0.4759863   1.5979337  )

     number of k points=   460

     Number of k-points >= 100: set verbosity='high' to print them.

     Dense  grid:   169511 G-vectors     FFT dimensions: (  50,  90,  80)

     Estimated max dynamical RAM per process >      44.63 MB

     Estimated total dynamical RAM >       5.46 GB

     Initial potential from superposition of free atoms

     starting charge      63.9998, renormalised to      64.0000
     Starting wfcs are   48 randomized atomic wfcs

     total cpu time spent up to now is        4.6 secs

     per-process dynamical memory:    52.7 Mb

     Self-consistent Calculation

     iteration #  1     ecut=    90.00 Ry     beta= 0.70
     Davidson diagonalization with overlap
     ethr =  1.00E-02,  avg # of iterations =  2.0

     total cpu time spent up to now is       13.2 secs

     total energy              =    -274.57754077 Ry
     estimated scf accuracy    <       3.09006184 Ry

     iteration #  2     ecut=    90.00 Ry     beta= 0.70
     Davidson diagonalization with overlap
     ethr =  4.83E-03,  avg # of iterations =  3.0

     total cpu time spent up to now is       23.8 secs

     total energy              =    -275.57434390 Ry
     estimated scf accuracy    <       1.33954930 Ry

     iteration #  3     ecut=    90.00 Ry     beta= 0.70
     Davidson diagonalization with overlap
     ethr =  2.09E-03,  avg # of iterations =  2.0

     total cpu time spent up to now is       32.0 secs

     total energy              =    -275.73819798 Ry
     estimated scf accuracy    <       0.05150082 Ry

     iteration #  4     ecut=    90.00 Ry     beta= 0.70
     Davidson diagonalization with overlap
     ethr =  8.05E-05,  avg # of iterations =  4.0

     total cpu time spent up to now is       43.7 secs

     total energy              =    -275.77396879 Ry
     estimated scf accuracy    <       0.06392864 Ry

     iteration #  5     ecut=    90.00 Ry     beta= 0.70
     Davidson diagonalization with overlap
     ethr =  8.05E-05,  avg # of iterations =  2.0

     total cpu time spent up to now is       51.5 secs

     total energy              =    -275.77800626 Ry
     estimated scf accuracy    <       0.00874120 Ry

     iteration #  6     ecut=    90.00 Ry     beta= 0.70
     Davidson diagonalization with overlap
     ethr =  1.37E-05,  avg # of iterations =  2.0

     total cpu time spent up to now is       59.7 secs

     total energy              =    -275.77884662 Ry
     estimated scf accuracy    <       0.00159520 Ry

     iteration #  7     ecut=    90.00 Ry     beta= 0.70
     Davidson diagonalization with overlap
     ethr =  2.49E-06,  avg # of iterations =  3.0

     total cpu time spent up to now is       68.6 secs

     total energy              =    -275.77920226 Ry
     estimated scf accuracy    <       0.00009109 Ry

     iteration #  8     ecut=    90.00 Ry     beta= 0.70
     Davidson diagonalization with overlap
     ethr =  1.42E-07,  avg # of iterations =  3.5

     total cpu time spent up to now is       78.6 secs

     total energy              =    -275.77923553 Ry
     estimated scf accuracy    <       0.00000504 Ry

     iteration #  9     ecut=    90.00 Ry     beta= 0.70
     Davidson diagonalization with overlap
     ethr =  7.87E-09,  avg # of iterations =  3.6

     total cpu time spent up to now is       89.8 secs

     total energy              =    -275.77924211 Ry
     estimated scf accuracy    <       0.00000731 Ry

     iteration # 10     ecut=    90.00 Ry     beta= 0.70
     Davidson diagonalization with overlap
     ethr =  7.87E-09,  avg # of iterations =  2.0

     total cpu time spent up to now is       96.9 secs

     total energy              =    -275.77923778 Ry
     estimated scf accuracy    <       0.00000978 Ry

     iteration # 11     ecut=    90.00 Ry     beta= 0.70
     Davidson diagonalization with overlap
     ethr =  7.87E-09,  avg # of iterations =  2.0

     total cpu time spent up to now is      105.9 secs

     total energy              =    -275.77923887 Ry
     estimated scf accuracy    <       0.00000059 Ry

     iteration # 12     ecut=    90.00 Ry     beta= 0.70
     Davidson diagonalization with overlap
     ethr =  9.26E-10,  avg # of iterations =  4.0

     total cpu time spent up to now is      117.0 secs

     End of self-consistent calculation

     Number of k-points >= 100: set verbosity='high' to print the bands.

     highest occupied level (ev):    -2.7219

!    total energy              =    -275.77923916 Ry
     estimated scf accuracy    <       0.00000007 Ry

     The total energy is the sum of the following terms:
     one-electron contribution =    -228.54237732 Ry
     hartree contribution      =     136.20575813 Ry
     xc contribution           =     -68.98225197 Ry
     ewald contribution        =    -114.46036801 Ry

     convergence has been achieved in  12 iterations

     Forces acting on atoms (cartesian axes, Ry/au):

     atom    1 type  2   force =     0.00000000    0.00396910   -0.15288408
     atom    2 type  2   force =     0.00000000   -0.00396970   -0.15288358
     atom    3 type  2   force =     0.00000000    0.00396691   -0.15288223
     atom    4 type  2   force =     0.00000000   -0.00396757   -0.15288183
     atom    5 type  2   force =     0.00000000    0.22254944   -0.16613364
     atom    6 type  2   force =     0.00000000   -0.22254895   -0.16613302
     atom    7 type  2   force =     0.00000000    0.22254962   -0.16613304
     atom    8 type  2   force =     0.00000000   -0.22254923   -0.16613276
     atom    9 type  1   force =     0.00000000   -0.00007536    0.15222215
     atom   10 type  1   force =     0.00000000    0.00007543    0.15222098
     atom   11 type  1   force =     0.00000000   -0.00007548    0.15222287
     atom   12 type  1   force =     0.00000000    0.00007554    0.15222160
     atom   13 type  1   force =     0.00000000   -0.00730182   -0.00552627
     atom   14 type  1   force =     0.00000000    0.00730201   -0.00552635
     atom   15 type  1   force =     0.00000000   -0.00730202   -0.00552628
     atom   16 type  1   force =     0.00000000    0.00730225   -0.00552639
     atom   17 type  1   force =     0.19029994   -0.11040492    0.08616016
     atom   18 type  1   force =    -0.19029975    0.11040489    0.08616010
     atom   19 type  1   force =     0.19029975    0.11040489    0.08616010
     atom   20 type  1   force =    -0.19029994   -0.11040492    0.08616016
     atom   21 type  1   force =     0.19030035   -0.11040519    0.08616039
     atom   22 type  1   force =    -0.19030012    0.11040514    0.08616029
     atom   23 type  1   force =     0.19030012    0.11040514    0.08616029
     atom   24 type  1   force =    -0.19030035   -0.11040519    0.08616039

     Total force =     0.970416     Total SCF correction =     0.000197


     Computing stress (Cartesian axis) and pressure

          total   stress  (Ry/bohr**3)                   (kbar)     P=      180.64
   0.00175395   0.00000000   0.00000000          258.01        0.00        0.00
   0.00000000   0.00062662   0.00000000            0.00       92.18        0.00
   0.00000000   0.00000000   0.00130340            0.00        0.00      191.74


     BFGS Geometry Optimization
     Energy error            =      0.0E+00 Ry
     Gradient error          =      2.2E-01 Ry/Bohr

     number of scf cycles    =   1
     number of bfgs steps    =   0

     energy             new  =    -275.7792391598 Ry

     new trust radius        =       0.2777204365 bohr
     new conv_thr            =       0.0000001000 Ry


ATOMIC_POSITIONS (crystal)
O                0.0000000000        0.6650847086        0.0514295735
O                0.0000000000        0.3349152481        0.5514295887
O                0.5000000000        0.1650845512        0.0514297147
O                0.5000000000        0.8349154012        0.5514297226
O                0.5000000000        0.8414644368        0.9242181832
O                0.5000000000        0.1585355980        0.4242182005
O                0.0000000000        0.3414644495        0.9242182293
O                0.0000000000        0.6585355782        0.4242182209
H                0.0000000000        0.6635946218        0.2079199008
H                0.0000000000        0.3364053826        0.7079198414
H                0.5000000000        0.1635946138        0.2079199561
H                0.5000000000        0.8364053909        0.7079198887
H                0.0000000000        0.5357762132        0.0178781526
H                0.0000000000        0.4642238004        0.5178781421
H                0.5000000000        0.0357761990        0.0178781515
H                0.5000000000        0.9642238180        0.5178781392
H                0.7002451894        0.7668801848        0.9882770521
H                0.2997548339        0.2331198135        0.4882770472
H                0.7002451661        0.2331198135        0.4882770472
H                0.2997548106        0.7668801848        0.9882770521
H                0.2002452407        0.2668801650        0.9882770690
H                0.7997547884        0.7331198310        0.4882770616
H                0.2002452116        0.7331198310        0.4882770616
H                0.7997547593        0.2668801650        0.9882770690



     Writing config-only to output data dir ./iceIh/iceIh.save/ :
     XML data file
     NEW-OLD atomic charge density approx. for the potential

     total cpu time spent up to now is      125.2 secs

     per-process dynamical memory:    56.8 Mb

     Self-consistent Calculation

     iteration #  1     ecut=    90.00 Ry     beta= 0.70
     Davidson diagonalization with overlap
     ethr =  1.00E-06,  avg # of iterations = 12.0

     total cpu time spent up to now is      155.6 secs

     total energy              =    -275.85830484 Ry
     estimated scf accuracy    <       0.21835128 Ry

     iteration #  2     ecut=    90.00 Ry     beta= 0.70
     Davidson diagonalization with overlap
     ethr =  3.41E-04,  avg # of iterations =  3.0

     total cpu time spent up to now is      165.6 secs

     total energy              =    -275.91053077 Ry
     estimated scf accuracy    <       0.05520765 Ry

     iteration #  3     ecut=    90.00 Ry     beta= 0.70
     Davidson diagonalization with overlap
     ethr =  8.63E-05,  avg # of iterations =  2.4

     total cpu time spent up to now is      174.3 secs

     total energy              =    -275.92139133 Ry
     estimated scf accuracy    <       0.00212895 Ry

     iteration #  4     ecut=    90.00 Ry     beta= 0.70
     Davidson diagonalization with overlap
     ethr =  3.33E-06,  avg # of iterations =  3.0

     total cpu time spent up to now is      184.3 secs

     total energy              =    -275.92201936 Ry
     estimated scf accuracy    <       0.00052405 Ry

     iteration #  5     ecut=    90.00 Ry     beta= 0.70
     Davidson diagonalization with overlap
     ethr =  8.19E-07,  avg # of iterations =  2.0

     total cpu time spent up to now is      192.6 secs

     total energy              =    -275.92208447 Ry
     estimated scf accuracy    <       0.00006365 Ry

     iteration #  6     ecut=    90.00 Ry     beta= 0.70
     Davidson diagonalization with overlap
     ethr =  9.95E-08,  avg # of iterations =  3.6

     total cpu time spent up to now is      203.2 secs

     total energy              =    -275.92210014 Ry
     estimated scf accuracy    <       0.00002491 Ry

     iteration #  7     ecut=    90.00 Ry     beta= 0.70
     Davidson diagonalization with overlap
     ethr =  3.89E-08,  avg # of iterations =  2.6

     total cpu time spent up to now is      212.8 secs

     total energy              =    -275.92210683 Ry
     estimated scf accuracy    <       0.00000069 Ry

     iteration #  8     ecut=    90.00 Ry     beta= 0.70
     Davidson diagonalization with overlap
     ethr =  1.08E-09,  avg # of iterations =  3.8

     total cpu time spent up to now is      223.6 secs

     total energy              =    -275.92210673 Ry
     estimated scf accuracy    <       0.00000113 Ry

     iteration #  9     ecut=    90.00 Ry     beta= 0.70
     Davidson diagonalization with overlap
     ethr =  1.08E-09,  avg # of iterations =  2.5

     total cpu time spent up to now is      232.3 secs

     End of self-consistent calculation

     Number of k-points >= 100: set verbosity='high' to print the bands.

     highest occupied level (ev):    -2.3340

!    total energy              =    -275.92210683 Ry
     estimated scf accuracy    <       0.00000007 Ry

     The total energy is the sum of the following terms:
     one-electron contribution =    -213.55001002 Ry
     hartree contribution      =     129.47746885 Ry
     xc contribution           =     -67.48487273 Ry
     ewald contribution        =    -124.36469293 Ry

     convergence has been achieved in   9 iterations

     Forces acting on atoms (cartesian axes, Ry/au):

     atom    1 type  2   force =     0.00000000    0.06815198    0.07796776
     atom    2 type  2   force =     0.00000000   -0.06815105    0.07796720
     atom    3 type  2   force =     0.00000000    0.06815374    0.07796721
     atom    4 type  2   force =     0.00000000   -0.06815274    0.07796660
     atom    5 type  2   force =     0.00000000   -0.09072175    0.07297824
     atom    6 type  2   force =     0.00000000    0.09072143    0.07297804
     atom    7 type  2   force =     0.00000000   -0.09072182    0.07297818
     atom    8 type  2   force =     0.00000000    0.09072155    0.07297808
     atom    9 type  1   force =     0.00000000    0.00904168   -0.03294084
     atom   10 type  1   force =     0.00000000   -0.00904174   -0.03294049
     atom   11 type  1   force =     0.00000000    0.00904139   -0.03294041
     atom   12 type  1   force =     0.00000000   -0.00904146   -0.03294004
     atom   13 type  1   force =     0.00000000   -0.04985788   -0.03349404
     atom   14 type  1   force =     0.00000000    0.04985715   -0.03349389
     atom   15 type  1   force =     0.00000000   -0.04985909   -0.03349414
     atom   16 type  1   force =     0.00000000    0.04985829   -0.03349398
     atom   17 type  1   force =    -0.04361776    0.03277349   -0.04225549
     atom   18 type  1   force =     0.04361763   -0.03277340   -0.04225539
     atom   19 type  1   force =    -0.04361763   -0.03277340   -0.04225539
     atom   20 type  1   force =     0.04361776    0.03277349   -0.04225549
     atom   21 type  1   force =    -0.04361792    0.03277351   -0.04225545
     atom   22 type  1   force =     0.04361778   -0.03277344   -0.04225539
     atom   23 type  1   force =    -0.04361778   -0.03277344   -0.04225539
     atom   24 type  1   force =     0.04361792    0.03277351   -0.04225545

     Total force =     0.392829     Total SCF correction =     0.000208


     Computing stress (Cartesian axis) and pressure

          total   stress  (Ry/bohr**3)                   (kbar)     P=      -32.02
  -0.00050495   0.00000000   0.00000000          -74.28        0.00        0.00
   0.00000000   0.00020735   0.00000000            0.00       30.50        0.00
   0.00000000   0.00000000  -0.00035546            0.00        0.00      -52.29

     Energy error            =      1.4E-01 Ry
     Gradient error          =      9.1E-02 Ry/Bohr

     number of scf cycles    =   2
     number of bfgs steps    =   1

     energy             old  =    -275.7792391598 Ry
     energy             new  =    -275.9221068309 Ry

     CASE: energy            _new < energy            _old

     new trust radius        =       0.0793208917 bohr
     new conv_thr            =       0.0000001000 Ry


ATOMIC_POSITIONS (crystal)
O                0.0000000000        0.6687467496        0.0555541073
O                0.0000000000        0.3312532557        0.5555540918
O                0.5000000000        0.1687466823        0.0555542208
O                0.5000000000        0.8312533223        0.5555541950
O                0.5000000000        0.8370434092        0.9280299520
O                0.5000000000        0.1629566092        0.4280299593
O                0.0000000000        0.3370434183        0.9280299961
O                0.0000000000        0.6629565955        0.4280299824
H                0.0000000000        0.6640792639        0.2063630358
H                0.0000000000        0.3359207375        0.7063629938
H                0.5000000000        0.1640792398        0.2063631171
H                0.5000000000        0.8359207612        0.7063630681
H                0.0000000000        0.5330884178        0.0159553926
H                0.0000000000        0.4669115573        0.5159553905
H                0.5000000000        0.0330883382        0.0159553854
H                0.5000000000        0.9669116367        0.5159553824
H                0.6968508226        0.7684175275        0.9860487156
H                0.3031491894        0.2315824756        0.4860487162
H                0.6968508106        0.2315824756        0.4860487162
H                0.3031491774        0.7684175275        0.9860487156
H                0.1968508611        0.2684175079        0.9860487352
H                0.8031491564        0.7315824916        0.4860487309
H                0.1968508436        0.7315824916        0.4860487309
H                0.8031491389        0.2684175079        0.9860487352



     Writing config-only to output data dir ./iceIh/iceIh.save/ :
     XML data file
     NEW-OLD atomic charge density approx. for the potential

     total cpu time spent up to now is      241.6 secs

     per-process dynamical memory:    57.5 Mb

     Self-consistent Calculation

     iteration #  1     ecut=    90.00 Ry     beta= 0.70
     Davidson diagonalization with overlap
     ethr =  1.00E-06,  avg # of iterations =  9.0

     total cpu time spent up to now is      264.5 secs

     total energy              =    -275.98819006 Ry
     estimated scf accuracy    <       0.01388712 Ry

     iteration #  2     ecut=    90.00 Ry     beta= 0.70
     Davidson diagonalization with overlap
     ethr =  2.17E-05,  avg # of iterations =  2.9

     total cpu time spent up to now is      274.0 secs

     total energy              =    -275.99105490 Ry
     estimated scf accuracy    <       0.00258699 Ry

     iteration #  3     ecut=    90.00 Ry     beta= 0.70
     Davidson diagonalization with overlap
     ethr =  4.04E-06,  avg # of iterations =  3.0

     total cpu time spent up to now is      283.6 secs

     total energy              =    -275.99168670 Ry
     estimated scf accuracy    <       0.00023972 Ry

     iteration #  4     ecut=    90.00 Ry     beta= 0.70
     Davidson diagonalization with overlap
     ethr =  3.75E-07,  avg # of iterations =  2.3

     total cpu time spent up to now is      292.1 secs

     total energy              =    -275.99172813 Ry
     estimated scf accuracy    <       0.00001495 Ry

     iteration #  5     ecut=    90.00 Ry     beta= 0.70
     Davidson diagonalization with overlap
     ethr =  2.34E-08,  avg # of iterations =  3.0

     total cpu time spent up to now is      301.8 secs

     total energy              =    -275.99173296 Ry
     estimated scf accuracy    <       0.00000159 Ry

     iteration #  6     ecut=    90.00 Ry     beta= 0.70
     Davidson diagonalization with overlap
     ethr =  2.49E-09,  avg # of iterations =  2.0

     total cpu time spent up to now is      309.6 secs

     total energy              =    -275.99173304 Ry
     estimated scf accuracy    <       0.00000020 Ry

     iteration #  7     ecut=    90.00 Ry     beta= 0.70
     Davidson diagonalization with overlap
     ethr =  3.10E-10,  avg # of iterations =  3.8

     total cpu time spent up to now is      320.6 secs

     total energy              =    -275.99173310 Ry
     estimated scf accuracy    <       0.00000011 Ry

     iteration #  8     ecut=    90.00 Ry     beta= 0.70
     Davidson diagonalization with overlap
     ethr =  1.72E-10,  avg # of iterations =  2.9

     total cpu time spent up to now is      329.8 secs

     End of self-consistent calculation

     Number of k-points >= 100: set verbosity='high' to print the bands.

     highest occupied level (ev):    -2.4424

!    total energy              =    -275.99173313 Ry
     estimated scf accuracy    <          3.0E-09 Ry

     The total energy is the sum of the following terms:
     one-electron contribution =    -214.97151191 Ry
     hartree contribution      =     130.12362602 Ry
     xc contribution           =     -67.63183106 Ry
     ewald contribution        =    -123.51201617 Ry

     convergence has been achieved in   8 iterations

     Forces acting on atoms (cartesian axes, Ry/au):

     atom    1 type  2   force =     0.00000000   -0.02002282    0.02730594
     atom    2 type  2   force =     0.00000000    0.02002263    0.02730590
     atom    3 type  2   force =     0.00000000   -0.02002294    0.02730527
     atom    4 type  2   force =     0.00000000    0.02002273    0.02730525
     atom    5 type  2   force =     0.00000000   -0.03698786    0.04343610
     atom    6 type  2   force =     0.00000000    0.03698777    0.04343604
     atom    7 type  2   force =     0.00000000   -0.03698803    0.04343597
     atom    8 type  2   force =     0.00000000    0.03698797    0.04343598
     atom    9 type  1   force =     0.00000000    0.00975760   -0.01902193
     atom   10 type  1   force =     0.00000000   -0.00975759   -0.01902176
     atom   11 type  1   force =     0.00000000    0.00975748   -0.01902176
     atom   12 type  1   force =     0.00000000   -0.00975748   -0.01902160
     atom   13 type  1   force =     0.00000000    0.01895954   -0.01036911
     atom   14 type  1   force =     0.00000000   -0.01895935   -0.01036917
     atom   15 type  1   force =     0.00000000    0.01895985   -0.01036888
     atom   16 type  1   force =     0.00000000   -0.01895964   -0.01036895
     atom   17 type  1   force =    -0.02543090    0.01523133   -0.02067542
     atom   18 type  1   force =     0.02543087   -0.01523129   -0.02067541
     atom   19 type  1   force =    -0.02543087   -0.01523129   -0.02067541
     atom   20 type  1   force =     0.02543090    0.01523133   -0.02067542
     atom   21 type  1   force =    -0.02543106    0.01523139   -0.02067541
     atom   22 type  1   force =     0.02543102   -0.01523136   -0.02067542
     atom   23 type  1   force =    -0.02543102   -0.01523136   -0.02067542
     atom   24 type  1   force =     0.02543106    0.01523139   -0.02067541

     Total force =     0.178188     Total SCF correction =     0.000089


     Computing stress (Cartesian axis) and pressure

          total   stress  (Ry/bohr**3)                   (kbar)     P=      -20.23
  -0.00021314   0.00000000   0.00000000          -31.35        0.00        0.00
   0.00000000  -0.00011553  -0.00000000            0.00      -16.99       -0.00
   0.00000000  -0.00000000  -0.00008382            0.00       -0.00      -12.33

     Energy error            =      7.0E-02 Ry
     Gradient error          =      4.3E-02 Ry/Bohr

     number of scf cycles    =   3
     number of bfgs steps    =   2

     energy             old  =    -275.9221068309 Ry
     energy             new  =    -275.9917331312 Ry

     CASE: energy            _new < energy            _old

     new trust radius        =       0.0901229331 bohr
     new conv_thr            =       0.0000001000 Ry


ATOMIC_POSITIONS (crystal)
O                0.0000000000        0.6669920480        0.0589641336
O                0.0000000000        0.3330079429        0.5589641104
O                0.5000000000        0.1669919766        0.0589641704
O                0.5000000000        0.8330080114        0.5589641391
O                0.5000000000        0.8327698844        0.9331920554
O                0.5000000000        0.1672301233        0.4331920557
O                0.0000000000        0.3327698750        0.9331920853
O                0.0000000000        0.6672301313        0.4331920726
H                0.0000000000        0.6651302549        0.2040870624
H                0.0000000000        0.3348697471        0.7040870414
H                0.5000000000        0.1651302167        0.2040871641
H                0.5000000000        0.8348697842        0.7040871349
H                0.0000000000        0.5348184899        0.0146496724
H                0.0000000000        0.4651815014        0.5146496644
H                0.5000000000        0.0348184366        0.0146496904
H                0.5000000000        0.9651815559        0.5146496805
H                0.6919042100        0.7701583801        0.9835535065
H                0.3080957940        0.2298416273        0.4835535094
H                0.6919042060        0.2298416273        0.4835535094
H                0.3080957900        0.7701583801        0.9835535065
H                0.1919042194        0.2701583670        0.9835535280
H                0.8080957896        0.7298416356        0.4835535227
H                0.1919042104        0.7298416356        0.4835535227
H                0.8080957806        0.2701583670        0.9835535280



     Writing config-only to output data dir ./iceIh/iceIh.save/ :
     XML data file
     NEW-OLD atomic charge density approx. for the potential

     total cpu time spent up to now is      338.0 secs

     per-process dynamical memory:    57.5 Mb

     Self-consistent Calculation

     iteration #  1     ecut=    90.00 Ry     beta= 0.70
     Davidson diagonalization with overlap
     ethr =  1.00E-06,  avg # of iterations =  9.0

     total cpu time spent up to now is      361.2 secs

     total energy              =    -276.00369741 Ry
     estimated scf accuracy    <       0.01708081 Ry

     iteration #  2     ecut=    90.00 Ry     beta= 0.70
     Davidson diagonalization with overlap
     ethr =  2.67E-05,  avg # of iterations =  3.0

     total cpu time spent up to now is      371.1 secs

     total energy              =    -276.00821153 Ry
     estimated scf accuracy    <       0.00395869 Ry

     iteration #  3     ecut=    90.00 Ry     beta= 0.70
     Davidson diagonalization with overlap
     ethr =  6.19E-06,  avg # of iterations =  2.0

     total cpu time spent up to now is      379.0 secs

     total energy              =    -276.00878444 Ry
     estimated scf accuracy    <       0.00014622 Ry

     iteration #  4     ecut=    90.00 Ry     beta= 0.70
     Davidson diagonalization with overlap
     ethr =  2.28E-07,  avg # of iterations =  3.0

     total cpu time spent up to now is      389.7 secs

     total energy              =    -276.00885331 Ry
     estimated scf accuracy    <       0.00007052 Ry

     iteration #  5     ecut=    90.00 Ry     beta= 0.70
     Davidson diagonalization with overlap
     ethr =  1.10E-07,  avg # of iterations =  2.0

     total cpu time spent up to now is      398.1 secs

     total energy              =    -276.00886152 Ry
     estimated scf accuracy    <       0.00000998 Ry

     iteration #  6     ecut=    90.00 Ry     beta= 0.70
     Davidson diagonalization with overlap
     ethr =  1.56E-08,  avg # of iterations =  3.0

     total cpu time spent up to now is      408.8 secs

     total energy              =    -276.00886390 Ry
     estimated scf accuracy    <       0.00000531 Ry

     iteration #  7     ecut=    90.00 Ry     beta= 0.70
     Davidson diagonalization with overlap
     ethr =  8.30E-09,  avg # of iterations =  2.0

     total cpu time spent up to now is      417.8 secs

     End of self-consistent calculation

     Number of k-points >= 100: set verbosity='high' to print the bands.

     highest occupied level (ev):    -2.5595

!    total energy              =    -276.00886527 Ry
     estimated scf accuracy    <       0.00000005 Ry

     The total energy is the sum of the following terms:
     one-electron contribution =    -219.01696727 Ry
     hartree contribution      =     131.94723370 Ry
     xc contribution           =     -68.03526477 Ry
     ewald contribution        =    -120.90386692 Ry

     convergence has been achieved in   7 iterations

     Forces acting on atoms (cartesian axes, Ry/au):

     atom    1 type  2   force =     0.00000000   -0.00814723   -0.01393295
     atom    2 type  2   force =     0.00000000    0.00814725   -0.01393284
     atom    3 type  2   force =     0.00000000   -0.00814700   -0.01393243
     atom    4 type  2   force =     0.00000000    0.00814704   -0.01393232
     atom    5 type  2   force =     0.00000000    0.02673045   -0.01151124
     atom    6 type  2   force =     0.00000000   -0.02673047   -0.01151120
     atom    7 type  2   force =     0.00000000    0.02673052   -0.01151123
     atom    8 type  2   force =     0.00000000   -0.02673056   -0.01151120
     atom    9 type  1   force =     0.00000000    0.00127564    0.01113265
     atom   10 type  1   force =     0.00000000   -0.00127566    0.01113264
     atom   11 type  1   force =     0.00000000    0.00127560    0.01113207
     atom   12 type  1   force =     0.00000000   -0.00127562    0.01113205
     atom   13 type  1   force =     0.00000000    0.00873583   -0.00068374
     atom   14 type  1   force =     0.00000000   -0.00873580   -0.00068377
     atom   15 type  1   force =     0.00000000    0.00873580   -0.00068371
     atom   16 type  1   force =     0.00000000   -0.00873579   -0.00068375
     atom   17 type  1   force =     0.01080725   -0.01456536    0.00749762
     atom   18 type  1   force =    -0.01080727    0.01456535    0.00749761
     atom   19 type  1   force =     0.01080727    0.01456535    0.00749761
     atom   20 type  1   force =    -0.01080725   -0.01456536    0.00749762
     atom   21 type  1   force =     0.01080721   -0.01456537    0.00749763
     atom   22 type  1   force =    -0.01080724    0.01456537    0.00749762
     atom   23 type  1   force =     0.01080724    0.01456537    0.00749762
     atom   24 type  1   force =    -0.01080721   -0.01456537    0.00749763

     Total force =     0.091218     Total SCF correction =     0.000459


     Computing stress (Cartesian axis) and pressure

          total   stress  (Ry/bohr**3)                   (kbar)     P=       29.90
   0.00023015   0.00000000   0.00000000           33.86        0.00        0.00
   0.00000000   0.00012971   0.00000000            0.00       19.08        0.00
   0.00000000   0.00000000   0.00024994            0.00        0.00       36.77

     Energy error            =      1.7E-02 Ry
     Gradient error          =      2.7E-02 Ry/Bohr

     number of scf cycles    =   4
     number of bfgs steps    =   3

     energy             old  =    -275.9917331312 Ry
     energy             new  =    -276.0088652660 Ry

     CASE: energy            _new < energy            _old

     new trust radius        =       0.0266278154 bohr
     new conv_thr            =       0.0000001000 Ry


ATOMIC_POSITIONS (crystal)
O                0.0000000000        0.6669448819        0.0580111580
O                0.0000000000        0.3330551139        0.5580111403
O                0.5000000000        0.1669448271        0.0580112306
O                0.5000000000        0.8330551673        0.5580112043
O                0.5000000000        0.8344097408        0.9321497220
O                0.5000000000        0.1655902667        0.4321497243
O                0.0000000000        0.3344097369        0.9321497538
O                0.0000000000        0.6655902677        0.4321497424
H                0.0000000000        0.6650902558        0.2048631733
H                0.0000000000        0.3349097450        0.7048631499
H                0.5000000000        0.1650902164        0.2048632419
H                0.5000000000        0.8349097831        0.7048632105
H                0.0000000000        0.5349419624        0.0146870063
H                0.0000000000        0.4650580268        0.5146869973
H                0.5000000000        0.0349419015        0.0146870225
H                0.5000000000        0.9650580876        0.5146870118
H                0.6932358246        0.7692951117        0.9841444370
H                0.3067641785        0.2307048952        0.4841444394
H                0.6932358215        0.2307048952        0.4841444394
H                0.3067641754        0.7692951117        0.9841444370
H                0.1932358327        0.2692950975        0.9841444587
H                0.8067641735        0.7307049053        0.4841444534
H                0.1932358265        0.7307049053        0.4841444534
H                0.8067641673        0.2692950975        0.9841444587



     Writing config-only to output data dir ./iceIh/iceIh.save/ :
     XML data file
     NEW-OLD atomic charge density approx. for the potential

     total cpu time spent up to now is      426.0 secs

     per-process dynamical memory:    57.9 Mb

     Self-consistent Calculation

     iteration #  1     ecut=    90.00 Ry     beta= 0.70
     Davidson diagonalization with overlap
     ethr =  1.00E-06,  avg # of iterations =  5.0

     total cpu time spent up to now is      441.5 secs

     total energy              =    -276.01175787 Ry
     estimated scf accuracy    <       0.00144628 Ry

     iteration #  2     ecut=    90.00 Ry     beta= 0.70
     Davidson diagonalization with overlap
     ethr =  2.26E-06,  avg # of iterations =  3.0

     total cpu time spent up to now is      451.5 secs

     total energy              =    -276.01210382 Ry
     estimated scf accuracy    <       0.00037593 Ry

     iteration #  3     ecut=    90.00 Ry     beta= 0.70
     Davidson diagonalization with overlap
     ethr =  5.87E-07,  avg # of iterations =  2.2

     total cpu time spent up to now is      460.4 secs

     total energy              =    -276.01217707 Ry
     estimated scf accuracy    <       0.00001256 Ry

     iteration #  4     ecut=    90.00 Ry     beta= 0.70
     Davidson diagonalization with overlap
     ethr =  1.96E-08,  avg # of iterations =  3.0

     total cpu time spent up to now is      471.1 secs

     total energy              =    -276.01218139 Ry
     estimated scf accuracy    <       0.00000576 Ry

     iteration #  5     ecut=    90.00 Ry     beta= 0.70
     Davidson diagonalization with overlap
     ethr =  9.00E-09,  avg # of iterations =  2.0

     total cpu time spent up to now is      479.7 secs

     total energy              =    -276.01218214 Ry
     estimated scf accuracy    <       0.00000061 Ry

     iteration #  6     ecut=    90.00 Ry     beta= 0.70
     Davidson diagonalization with overlap
     ethr =  9.51E-10,  avg # of iterations =  3.2

     total cpu time spent up to now is      490.6 secs

     total energy              =    -276.01218231 Ry
     estimated scf accuracy    <       0.00000034 Ry

     iteration #  7     ecut=    90.00 Ry     beta= 0.70
     Davidson diagonalization with overlap
     ethr =  5.26E-10,  avg # of iterations =  2.2

     total cpu time spent up to now is      500.1 secs

     End of self-consistent calculation

     Number of k-points >= 100: set verbosity='high' to print the bands.

     highest occupied level (ev):    -2.5412

!    total energy              =    -276.01218239 Ry
     estimated scf accuracy    <          2.6E-09 Ry

     The total energy is the sum of the following terms:
     one-electron contribution =    -217.93814266 Ry
     hartree contribution      =     131.46221095 Ry
     xc contribution           =     -67.92716285 Ry
     ewald contribution        =    -121.60908784 Ry

     convergence has been achieved in   7 iterations

     Forces acting on atoms (cartesian axes, Ry/au):

     atom    1 type  2   force =     0.00000000   -0.00100105    0.00207149
     atom    2 type  2   force =     0.00000000    0.00100101    0.00207153
     atom    3 type  2   force =     0.00000000   -0.00100113    0.00207122
     atom    4 type  2   force =     0.00000000    0.00100108    0.00207126
     atom    5 type  2   force =     0.00000000    0.00164061    0.00526637
     atom    6 type  2   force =     0.00000000   -0.00164063    0.00526639
     atom    7 type  2   force =     0.00000000    0.00164058    0.00526630
     atom    8 type  2   force =     0.00000000   -0.00164059    0.00526634
     atom    9 type  1   force =     0.00000000    0.00203394   -0.00022276
     atom   10 type  1   force =     0.00000000   -0.00203395   -0.00022271
     atom   11 type  1   force =     0.00000000    0.00203390   -0.00022274
     atom   12 type  1   force =     0.00000000   -0.00203391   -0.00022270
     atom   13 type  1   force =     0.00000000    0.00342317   -0.00385731
     atom   14 type  1   force =     0.00000000   -0.00342310   -0.00385734
     atom   15 type  1   force =     0.00000000    0.00342337   -0.00385720
     atom   16 type  1   force =     0.00000000   -0.00342330   -0.00385724
     atom   17 type  1   force =    -0.00326209   -0.00316755   -0.00162887
     atom   18 type  1   force =     0.00326208    0.00316754   -0.00162887
     atom   19 type  1   force =    -0.00326208    0.00316754   -0.00162887
     atom   20 type  1   force =     0.00326209   -0.00316755   -0.00162887
     atom   21 type  1   force =    -0.00326214   -0.00316753   -0.00162885
     atom   22 type  1   force =     0.00326213    0.00316753   -0.00162887
     atom   23 type  1   force =    -0.00326213    0.00316753   -0.00162887
     atom   24 type  1   force =     0.00326214   -0.00316753   -0.00162885

     Total force =     0.021275     Total SCF correction =     0.000143


     Computing stress (Cartesian axis) and pressure

          total   stress  (Ry/bohr**3)                   (kbar)     P=       15.63
   0.00007226   0.00000000   0.00000000           10.63        0.00        0.00
   0.00000000   0.00010816  -0.00000000            0.00       15.91       -0.00
   0.00000000  -0.00000000   0.00013835            0.00       -0.00       20.35

     Energy error            =      3.3E-03 Ry
     Gradient error          =      5.3E-03 Ry/Bohr

     number of scf cycles    =   5
     number of bfgs steps    =   4

     energy             old  =    -276.0088652660 Ry
     energy             new  =    -276.0121823857 Ry

     CASE: energy            _new < energy            _old

     new trust radius        =       0.0059119999 bohr
     new conv_thr            =       0.0000000332 Ry


ATOMIC_POSITIONS (crystal)
O                0.0000000000        0.6668731057        0.0581657255
O                0.0000000000        0.3331268882        0.5581657105
O                0.5000000000        0.1668730485        0.0581657803
O                0.5000000000        0.8331269435        0.5581657572
O                0.5000000000        0.8345829343        0.9325616649
O                0.5000000000        0.1654170717        0.4325616685
O                0.0000000000        0.3345829281        0.9325616912
O                0.0000000000        0.6654170751        0.4325616827
H                0.0000000000        0.6652535093        0.2048754638
H                0.0000000000        0.3347464908        0.7048754443
H                0.5000000000        0.1652534663        0.2048755303
H                0.5000000000        0.8347465321        0.7048755025
H                0.0000000000        0.5352002921        0.0143593228
H                0.0000000000        0.4647997015        0.5143593112
H                0.5000000000        0.0352002438        0.0143593474
H                0.5000000000        0.9647997500        0.5143593336
H                0.6928650872        0.7690254670        0.9840188809
H                0.3071349143        0.2309745397        0.4840188829
H                0.6928650857        0.2309745397        0.4840188829
H                0.3071349128        0.7690254670        0.9840188809
H                0.1928650880        0.2690254538        0.9840189035
H                0.8071349156        0.7309745489        0.4840188973
H                0.1928650844        0.7309745489        0.4840188973
H                0.8071349120        0.2690254538        0.9840189035



     Writing config-only to output data dir ./iceIh/iceIh.save/ :
     XML data file
     NEW-OLD atomic charge density approx. for the potential

     total cpu time spent up to now is      508.2 secs

     per-process dynamical memory:    57.9 Mb

     Self-consistent Calculation

     iteration #  1     ecut=    90.00 Ry     beta= 0.70
     Davidson diagonalization with overlap
     ethr =  1.00E-06,  avg # of iterations =  3.0

     Threshold (ethr) on eigenvalues was too large:
     Diagonalizing with lowered threshold

     Davidson diagonalization with overlap
     ethr =  4.15E-08,  avg # of iterations =  2.1

     total cpu time spent up to now is      526.3 secs

     total energy              =    -276.01258009 Ry
     estimated scf accuracy    <       0.00002944 Ry

     iteration #  2     ecut=    90.00 Ry     beta= 0.70
     Davidson diagonalization with overlap
     ethr =  4.60E-08,  avg # of iterations =  2.0

     total cpu time spent up to now is      535.2 secs

     total energy              =    -276.01258550 Ry
     estimated scf accuracy    <       0.00000277 Ry

     iteration #  3     ecut=    90.00 Ry     beta= 0.70
     Davidson diagonalization with overlap
     ethr =  4.33E-09,  avg # of iterations =  2.0

     total cpu time spent up to now is      544.0 secs

     total energy              =    -276.01258614 Ry
     estimated scf accuracy    <       0.00000017 Ry

     iteration #  4     ecut=    90.00 Ry     beta= 0.70
     Davidson diagonalization with overlap
     ethr =  2.64E-10,  avg # of iterations =  2.0

     total cpu time spent up to now is      551.3 secs

     End of self-consistent calculation

     Number of k-points >= 100: set verbosity='high' to print the bands.

     highest occupied level (ev):    -2.5471

!    total energy              =    -276.01258616 Ry
     estimated scf accuracy    <       0.00000002 Ry

     The total energy is the sum of the following terms:
     one-electron contribution =    -218.05328449 Ry
     hartree contribution      =     131.51446695 Ry
     xc contribution           =     -67.93838523 Ry
     ewald contribution        =    -121.53538340 Ry

     convergence has been achieved in   4 iterations

     Forces acting on atoms (cartesian axes, Ry/au):

     atom    1 type  2   force =     0.00000000    0.00119308    0.00080171
     atom    2 type  2   force =     0.00000000   -0.00119306    0.00080172
     atom    3 type  2   force =     0.00000000    0.00119318    0.00080168
     atom    4 type  2   force =     0.00000000   -0.00119316    0.00080169
     atom    5 type  2   force =     0.00000000    0.00136992    0.00365168
     atom    6 type  2   force =     0.00000000   -0.00136994    0.00365169
     atom    7 type  2   force =     0.00000000    0.00136993    0.00365164
     atom    8 type  2   force =     0.00000000   -0.00136995    0.00365166
     atom    9 type  1   force =     0.00000000    0.00111822    0.00043898
     atom   10 type  1   force =     0.00000000   -0.00111823    0.00043902
     atom   11 type  1   force =     0.00000000    0.00111820    0.00043889
     atom   12 type  1   force =     0.00000000   -0.00111821    0.00043893
     atom   13 type  1   force =     0.00000000    0.00166723   -0.00299456
     atom   14 type  1   force =     0.00000000   -0.00166722   -0.00299457
     atom   15 type  1   force =     0.00000000    0.00166726   -0.00299453
     atom   16 type  1   force =     0.00000000   -0.00166725   -0.00299455
     atom   17 type  1   force =    -0.00201999   -0.00295629   -0.00094889
     atom   18 type  1   force =     0.00201998    0.00295628   -0.00094889
     atom   19 type  1   force =    -0.00201998    0.00295628   -0.00094889
     atom   20 type  1   force =     0.00201999   -0.00295629   -0.00094889
     atom   21 type  1   force =    -0.00202002   -0.00295628   -0.00094888
     atom   22 type  1   force =     0.00202000    0.00295628   -0.00094889
     atom   23 type  1   force =    -0.00202000    0.00295628   -0.00094889
     atom   24 type  1   force =     0.00202002   -0.00295628   -0.00094888

     Total force =     0.015220     Total SCF correction =     0.000174


     Computing stress (Cartesian axis) and pressure

          total   stress  (Ry/bohr**3)                   (kbar)     P=       17.11
   0.00008348   0.00000000   0.00000000           12.28        0.00        0.00
   0.00000000   0.00012222   0.00000000            0.00       17.98        0.00
   0.00000000   0.00000000   0.00014325            0.00        0.00       21.07

     Energy error            =      4.0E-04 Ry
     Gradient error          =      3.7E-03 Ry/Bohr

     number of scf cycles    =   6
     number of bfgs steps    =   5

     energy             old  =    -276.0121823857 Ry
     energy             new  =    -276.0125861631 Ry

     CASE: energy            _new < energy            _old

     new trust radius        =       0.0065031999 bohr
     new conv_thr            =       0.0000000040 Ry


ATOMIC_POSITIONS (crystal)
O                0.0000000000        0.6669414144        0.0582590571
O                0.0000000000        0.3330585813        0.5582590438
O                0.5000000000        0.1669413672        0.0582591074
O                0.5000000000        0.8330586267        0.5582590858
O                0.5000000000        0.8348001944        0.9330009624
O                0.5000000000        0.1651998097        0.4330009676
O                0.0000000000        0.3348001886        0.9330009841
O                0.0000000000        0.6651998124        0.4330009787
H                0.0000000000        0.6654039689        0.2049481540
H                0.0000000000        0.3345960303        0.7049481391
H                0.5000000000        0.1654039226        0.2049482087
H                0.5000000000        0.8345960745        0.7049481857
H                0.0000000000        0.5354345661        0.0139807892
H                0.0000000000        0.4645654295        0.5139807759
H                0.5000000000        0.0354345226        0.0139808187
H                0.5000000000        0.9645654729        0.5139808029
H                0.6925077966        0.7686635870        0.9839054901
H                0.3074922028        0.2313364193        0.4839054918
H                0.6925077972        0.2313364193        0.4839054918
H                0.3074922034        0.7686635870        0.9839054901
H                0.1925077916        0.2686635744        0.9839055138
H                0.8074922088        0.7313364282        0.4839055069
H                0.1925077912        0.7313364282        0.4839055069
H                0.8074922084        0.2686635744        0.9839055138



     Writing config-only to output data dir ./iceIh/iceIh.save/ :
     XML data file
     NEW-OLD atomic charge density approx. for the potential

     total cpu time spent up to now is      559.4 secs

     per-process dynamical memory:    57.9 Mb

     Self-consistent Calculation

     iteration #  1     ecut=    90.00 Ry     beta= 0.70
     Davidson diagonalization with overlap
     ethr =  1.00E-06,  avg # of iterations =  3.0

     Threshold (ethr) on eigenvalues was too large:
     Diagonalizing with lowered threshold

     Davidson diagonalization with overlap
     ethr =  3.83E-08,  avg # of iterations =  2.2

     total cpu time spent up to now is      577.5 secs

     total energy              =    -276.01289354 Ry
     estimated scf accuracy    <       0.00002783 Ry

     iteration #  2     ecut=    90.00 Ry     beta= 0.70
     Davidson diagonalization with overlap
     ethr =  4.35E-08,  avg # of iterations =  2.0

     total cpu time spent up to now is      585.3 secs

     total energy              =    -276.01289759 Ry
     estimated scf accuracy    <       0.00000117 Ry

     iteration #  3     ecut=    90.00 Ry     beta= 0.70
     Davidson diagonalization with overlap
     ethr =  1.82E-09,  avg # of iterations =  2.5

     total cpu time spent up to now is      594.6 secs

     total energy              =    -276.01289790 Ry
     estimated scf accuracy    <       0.00000019 Ry

     iteration #  4     ecut=    90.00 Ry     beta= 0.70
     Davidson diagonalization with overlap
     ethr =  2.99E-10,  avg # of iterations =  2.5

     total cpu time spent up to now is      603.8 secs

     total energy              =    -276.01289794 Ry
     estimated scf accuracy    <       0.00000002 Ry

     iteration #  5     ecut=    90.00 Ry     beta= 0.70
     Davidson diagonalization with overlap
     ethr =  3.05E-11,  avg # of iterations =  2.5

     total cpu time spent up to now is      613.0 secs

     End of self-consistent calculation

     Number of k-points >= 100: set verbosity='high' to print the bands.

     highest occupied level (ev):    -2.5506

!    total energy              =    -276.01289794 Ry
     estimated scf accuracy    <          2.9E-09 Ry

     The total energy is the sum of the following terms:
     one-electron contribution =    -218.09243193 Ry
     hartree contribution      =     131.53136672 Ry
     xc contribution           =     -67.94175174 Ry
     ewald contribution        =    -121.51008099 Ry

     convergence has been achieved in   5 iterations

     Forces acting on atoms (cartesian axes, Ry/au):

     atom    1 type  2   force =     0.00000000    0.00179872    0.00022793
     atom    2 type  2   force =     0.00000000   -0.00179870    0.00022795
     atom    3 type  2   force =     0.00000000    0.00179876    0.00022787
     atom    4 type  2   force =     0.00000000   -0.00179875    0.00022789
     atom    5 type  2   force =     0.00000000    0.00057054    0.00231072
     atom    6 type  2   force =     0.00000000   -0.00057055    0.00231074
     atom    7 type  2   force =     0.00000000    0.00057053    0.00231069
     atom    8 type  2   force =     0.00000000   -0.00057054    0.00231071
     atom    9 type  1   force =     0.00000000    0.00040508    0.00023212
     atom   10 type  1   force =     0.00000000   -0.00040508    0.00023213
     atom   11 type  1   force =     0.00000000    0.00040508    0.00023209
     atom   12 type  1   force =     0.00000000   -0.00040509    0.00023210
     atom   13 type  1   force =     0.00000000    0.00105245   -0.00187527
     atom   14 type  1   force =     0.00000000   -0.00105244   -0.00187527
     atom   15 type  1   force =     0.00000000    0.00105249   -0.00187526
     atom   16 type  1   force =     0.00000000   -0.00105248   -0.00187526
     atom   17 type  1   force =    -0.00096498   -0.00233434   -0.00044774
     atom   18 type  1   force =     0.00096498    0.00233433   -0.00044774
     atom   19 type  1   force =    -0.00096498    0.00233433   -0.00044774
     atom   20 type  1   force =     0.00096498   -0.00233434   -0.00044774
     atom   21 type  1   force =    -0.00096499   -0.00233433   -0.00044773
     atom   22 type  1   force =     0.00096498    0.00233432   -0.00044774
     atom   23 type  1   force =    -0.00096498    0.00233432   -0.00044774
     atom   24 type  1   force =     0.00096499   -0.00233433   -0.00044773

     Total force =     0.010384     Total SCF correction =     0.000090


     Computing stress (Cartesian axis) and pressure

          total   stress  (Ry/bohr**3)                   (kbar)     P=       17.43
   0.00009117   0.00000000   0.00000000           13.41        0.00        0.00
   0.00000000   0.00012555   0.00000000            0.00       18.47        0.00
   0.00000000   0.00000000   0.00013877            0.00        0.00       20.41

     Energy error            =      3.1E-04 Ry
     Gradient error          =      2.3E-03 Ry/Bohr

     number of scf cycles    =   7
     number of bfgs steps    =   6

     energy             old  =    -276.0125861631 Ry
     energy             new  =    -276.0128979433 Ry

     CASE: energy            _new < energy            _old

     new trust radius        =       0.0097547999 bohr
     new conv_thr            =       0.0000000031 Ry


ATOMIC_POSITIONS (crystal)
O                0.0000000000        0.6671726918        0.0583577591
O                0.0000000000        0.3328273056        0.5583577509
O                0.5000000000        0.1671726537        0.0583577915
O                0.5000000000        0.8328273416        0.5583577756
O                0.5000000000        0.8350903216        0.9336785739
O                0.5000000000        0.1649096804        0.4336785819
O                0.0000000000        0.3350903136        0.9336785864
O                0.0000000000        0.6649096848        0.4336785861
H                0.0000000000        0.6655926936        0.2050447469
H                0.0000000000        0.3344073048        0.7050447369
H                0.5000000000        0.1655926449        0.2050447898
H                0.5000000000        0.8344073508        0.7050447716
H                0.0000000000        0.5358195153        0.0134067272
H                0.0000000000        0.4641804842        0.5134067121
H                0.5000000000        0.0358194852        0.0134067636
H                0.5000000000        0.9641805142        0.5134067454
H                0.6920379943        0.7680384198        0.9837560727
H                0.3079620030        0.2319615852        0.4837560738
H                0.6920379970        0.2319615852        0.4837560738
H                0.3079620057        0.7680384198        0.9837560727
H                0.1920379819        0.2680384091        0.9837560976
H                0.8079620150        0.7319615927        0.4837560896
H                0.1920379850        0.7319615927        0.4837560896
H                0.8079620181        0.2680384091        0.9837560976



     Writing config-only to output data dir ./iceIh/iceIh.save/ :
     XML data file
     NEW-OLD atomic charge density approx. for the potential

     total cpu time spent up to now is      621.1 secs

     per-process dynamical memory:    57.9 Mb

     Self-consistent Calculation

     iteration #  1     ecut=    90.00 Ry     beta= 0.70
     Davidson diagonalization with overlap
     ethr =  1.00E-06,  avg # of iterations =  3.2

     Threshold (ethr) on eigenvalues was too large:
     Diagonalizing with lowered threshold

     Davidson diagonalization with overlap
     ethr =  9.77E-08,  avg # of iterations =  2.0

     total cpu time spent up to now is      640.3 secs

     total energy              =    -276.01314047 Ry
     estimated scf accuracy    <       0.00006970 Ry

     iteration #  2     ecut=    90.00 Ry     beta= 0.70
     Davidson diagonalization with overlap
     ethr =  1.09E-07,  avg # of iterations =  2.0

     total cpu time spent up to now is      648.1 secs

     total energy              =    -276.01315043 Ry
     estimated scf accuracy    <       0.00000334 Ry

     iteration #  3     ecut=    90.00 Ry     beta= 0.70
     Davidson diagonalization with overlap
     ethr =  5.22E-09,  avg # of iterations =  3.0

     total cpu time spent up to now is      657.7 secs

     total energy              =    -276.01315121 Ry
     estimated scf accuracy    <       0.00000119 Ry

     iteration #  4     ecut=    90.00 Ry     beta= 0.70
     Davidson diagonalization with overlap
     ethr =  1.86E-09,  avg # of iterations =  3.0

     total cpu time spent up to now is      666.4 secs

     total energy              =    -276.01315148 Ry
     estimated scf accuracy    <       0.00000007 Ry

     iteration #  5     ecut=    90.00 Ry     beta= 0.70
     Davidson diagonalization with overlap
     ethr =  1.03E-10,  avg # of iterations =  2.9

     total cpu time spent up to now is      675.8 secs

     total energy              =    -276.01315149 Ry
     estimated scf accuracy    <       0.00000002 Ry

     iteration #  6     ecut=    90.00 Ry     beta= 0.70
     Davidson diagonalization with overlap
     ethr =  3.46E-11,  avg # of iterations =  2.9

     total cpu time spent up to now is      684.4 secs

     End of self-consistent calculation

     Number of k-points >= 100: set verbosity='high' to print the bands.

     highest occupied level (ev):    -2.5554

!    total energy              =    -276.01315149 Ry
     estimated scf accuracy    <          4.1E-10 Ry

     The total energy is the sum of the following terms:
     one-electron contribution =    -218.10746123 Ry
     hartree contribution      =     131.53849380 Ry
     xc contribution           =     -67.94283937 Ry
     ewald contribution        =    -121.50134469 Ry

     convergence has been achieved in   6 iterations

     Forces acting on atoms (cartesian axes, Ry/au):

     atom    1 type  2   force =     0.00000000    0.00157499   -0.00047870
     atom    2 type  2   force =     0.00000000   -0.00157496   -0.00047872
     atom    3 type  2   force =     0.00000000    0.00157509   -0.00047861
     atom    4 type  2   force =     0.00000000   -0.00157506   -0.00047864
     atom    5 type  2   force =     0.00000000   -0.00090335    0.00063818
     atom    6 type  2   force =     0.00000000    0.00090335    0.00063817
     atom    7 type  2   force =     0.00000000   -0.00090334    0.00063817
     atom    8 type  2   force =     0.00000000    0.00090334    0.00063817
     atom    9 type  1   force =     0.00000000   -0.00039178   -0.00020230
     atom   10 type  1   force =     0.00000000    0.00039178   -0.00020228
     atom   11 type  1   force =     0.00000000   -0.00039174   -0.00020237
     atom   12 type  1   force =     0.00000000    0.00039175   -0.00020235
     atom   13 type  1   force =     0.00000000    0.00074679   -0.00018439
     atom   14 type  1   force =     0.00000000   -0.00074682   -0.00018437
     atom   15 type  1   force =     0.00000000    0.00074675   -0.00018444
     atom   16 type  1   force =     0.00000000   -0.00074677   -0.00018442
     atom   17 type  1   force =     0.00026064   -0.00106766    0.00011361
     atom   18 type  1   force =    -0.00026064    0.00106766    0.00011362
     atom   19 type  1   force =     0.00026064    0.00106766    0.00011362
     atom   20 type  1   force =    -0.00026064   -0.00106766    0.00011361
     atom   21 type  1   force =     0.00026066   -0.00106766    0.00011361
     atom   22 type  1   force =    -0.00026065    0.00106765    0.00011361
     atom   23 type  1   force =     0.00026065    0.00106765    0.00011361
     atom   24 type  1   force =    -0.00026066   -0.00106766    0.00011361

     Total force =     0.005352     Total SCF correction =     0.000055


     Computing stress (Cartesian axis) and pressure

          total   stress  (Ry/bohr**3)                   (kbar)     P=       17.63
   0.00010286   0.00000000   0.00000000           15.13        0.00        0.00
   0.00000000   0.00012583   0.00000000            0.00       18.51        0.00
   0.00000000   0.00000000   0.00013075            0.00        0.00       19.23

     Energy error            =      2.5E-04 Ry
     Gradient error          =      1.6E-03 Ry/Bohr

     number of scf cycles    =   8
     number of bfgs steps    =   7

     energy             old  =    -276.0128979433 Ry
     energy             new  =    -276.0131514911 Ry

     CASE: energy            _new < energy            _old

     new trust radius        =       0.0043244955 bohr
     new conv_thr            =       0.0000000025 Ry


ATOMIC_POSITIONS (crystal)
O                0.0000000000        0.6673524696        0.0583483155
O                0.0000000000        0.3326475307        0.5583483071
O                0.5000000000        0.1673524431        0.0583483501
O                0.5000000000        0.8326475556        0.5583483334
O                0.5000000000        0.8351103947        0.9339687993
O                0.5000000000        0.1648896060        0.4339688076
O                0.0000000000        0.3351103868        0.9339688084
O                0.0000000000        0.6648896104        0.4339688095
H                0.0000000000        0.6656280132        0.2050535861
H                0.0000000000        0.3343719853        0.7050535793
H                0.5000000000        0.1656279664        0.2050536180
H                0.5000000000        0.8343720292        0.7050536034
H                0.0000000000        0.5360377418        0.0131995432
H                0.0000000000        0.4639622573        0.5131995295
H                0.5000000000        0.0360377124        0.0131995771
H                0.5000000000        0.9639622863        0.5131995600
H                0.6919179332        0.7677385392        0.9837148566
H                0.3080820632        0.2322614652        0.4837148579
H                0.6919179368        0.2322614652        0.4837148579
H                0.3080820668        0.7677385392        0.9837148566
H                0.1919179208        0.2677385296        0.9837148813
H                0.8080820750        0.7322614718        0.4837148734
H                0.1919179250        0.7322614718        0.4837148734
H                0.8080820792        0.2677385296        0.9837148813



     Writing config-only to output data dir ./iceIh/iceIh.save/ :
     XML data file
     NEW-OLD atomic charge density approx. for the potential

     total cpu time spent up to now is      692.6 secs

     per-process dynamical memory:    57.9 Mb

     Self-consistent Calculation

     iteration #  1     ecut=    90.00 Ry     beta= 0.70
     Davidson diagonalization with overlap
     ethr =  1.00E-06,  avg # of iterations =  3.0

     Threshold (ethr) on eigenvalues was too large:
     Diagonalizing with lowered threshold

     Davidson diagonalization with overlap
     ethr =  1.97E-08,  avg # of iterations =  3.0

     total cpu time spent up to now is      711.7 secs

     total energy              =    -276.01319322 Ry
     estimated scf accuracy    <       0.00001643 Ry

     iteration #  2     ecut=    90.00 Ry     beta= 0.70
     Davidson diagonalization with overlap
     ethr =  2.57E-08,  avg # of iterations =  2.0

     total cpu time spent up to now is      720.3 secs

     total energy              =    -276.01319581 Ry
     estimated scf accuracy    <       0.00000306 Ry

     iteration #  3     ecut=    90.00 Ry     beta= 0.70
     Davidson diagonalization with overlap
     ethr =  4.78E-09,  avg # of iterations =  2.8

     total cpu time spent up to now is      729.8 secs

     total energy              =    -276.01319670 Ry
     estimated scf accuracy    <       0.00000042 Ry

     iteration #  4     ecut=    90.00 Ry     beta= 0.70
     Davidson diagonalization with overlap
     ethr =  6.64E-10,  avg # of iterations =  2.4

     total cpu time spent up to now is      737.3 secs

     total energy              =    -276.01319673 Ry
     estimated scf accuracy    <       0.00000003 Ry

     iteration #  5     ecut=    90.00 Ry     beta= 0.70
     Davidson diagonalization with overlap
     ethr =  5.01E-11,  avg # of iterations =  4.1

     total cpu time spent up to now is      749.5 secs

     total energy              =    -276.01319674 Ry
     estimated scf accuracy    <       0.00000004 Ry

     iteration #  6     ecut=    90.00 Ry     beta= 0.70
     Davidson diagonalization with overlap
     ethr =  5.01E-11,  avg # of iterations =  3.0

     total cpu time spent up to now is      759.2 secs

     End of self-consistent calculation

     Number of k-points >= 100: set verbosity='high' to print the bands.

     highest occupied level (ev):    -2.5575

!    total energy              =    -276.01319675 Ry
     estimated scf accuracy    <          1.2E-10 Ry

     The total energy is the sum of the following terms:
     one-electron contribution =    -218.10383613 Ry
     hartree contribution      =     131.53680055 Ry
     xc contribution           =     -67.94233800 Ry
     ewald contribution        =    -121.50382317 Ry

     convergence has been achieved in   6 iterations

     Forces acting on atoms (cartesian axes, Ry/au):

     atom    1 type  2   force =     0.00000000    0.00095441   -0.00041694
     atom    2 type  2   force =     0.00000000   -0.00095442   -0.00041692
     atom    3 type  2   force =     0.00000000    0.00095439   -0.00041699
     atom    4 type  2   force =     0.00000000   -0.00095440   -0.00041696
     atom    5 type  2   force =     0.00000000   -0.00121433   -0.00010711
     atom    6 type  2   force =     0.00000000    0.00121434   -0.00010711
     atom    7 type  2   force =     0.00000000   -0.00121435   -0.00010712
     atom    8 type  2   force =     0.00000000    0.00121436   -0.00010712
     atom    9 type  1   force =     0.00000000   -0.00045093   -0.00040865
     atom   10 type  1   force =     0.00000000    0.00045093   -0.00040867
     atom   11 type  1   force =     0.00000000   -0.00045089   -0.00040863
     atom   12 type  1   force =     0.00000000    0.00045089   -0.00040865
     atom   13 type  1   force =     0.00000000    0.00066295    0.00031333
     atom   14 type  1   force =     0.00000000   -0.00066295    0.00031334
     atom   15 type  1   force =     0.00000000    0.00066299    0.00031330
     atom   16 type  1   force =     0.00000000   -0.00066298    0.00031331
     atom   17 type  1   force =     0.00058476   -0.00053745    0.00030970
     atom   18 type  1   force =    -0.00058475    0.00053744    0.00030970
     atom   19 type  1   force =     0.00058475    0.00053744    0.00030970
     atom   20 type  1   force =    -0.00058476   -0.00053745    0.00030970
     atom   21 type  1   force =     0.00058477   -0.00053744    0.00030969
     atom   22 type  1   force =    -0.00058477    0.00053743    0.00030970
     atom   23 type  1   force =     0.00058477    0.00053743    0.00030970
     atom   24 type  1   force =    -0.00058477   -0.00053744    0.00030969

     Total force =     0.004442     Total SCF correction =     0.000032


     Computing stress (Cartesian axis) and pressure

          total   stress  (Ry/bohr**3)                   (kbar)     P=       17.57
   0.00010835   0.00000000   0.00000000           15.94        0.00        0.00
   0.00000000   0.00012425   0.00000000            0.00       18.28        0.00
   0.00000000   0.00000000   0.00012574            0.00        0.00       18.50

     Energy error            =      4.5E-05 Ry
     Gradient error          =      1.2E-03 Ry/Bohr

     number of scf cycles    =   9
     number of bfgs steps    =   8

     energy             old  =    -276.0131514911 Ry
     energy             new  =    -276.0131967495 Ry

     CASE: energy            _new < energy            _old

     new trust radius        =       0.0027550167 bohr
     new conv_thr            =       0.0000000010 Ry


ATOMIC_POSITIONS (crystal)
O                0.0000000000        0.6675117368        0.0583106497
O                0.0000000000        0.3324882633        0.5583106438
O                0.5000000000        0.1675117114        0.0583106772
O                0.5000000000        0.8324882867        0.5583106637
O                0.5000000000        0.8350066753        0.9341067382
O                0.5000000000        0.1649933255        0.4341067467
O                0.0000000000        0.3350066654        0.9341067441
O                0.0000000000        0.6649933318        0.4341067457
H                0.0000000000        0.6656092933        0.2050120516
H                0.0000000000        0.3343907059        0.7050120444
H                0.5000000000        0.1656092513        0.2050120824
H                0.5000000000        0.8343907450        0.7050120672
H                0.0000000000        0.5362186338        0.0131252597
H                0.0000000000        0.4637813666        0.5131252477
H                0.5000000000        0.0362186102        0.0131252902
H                0.5000000000        0.9637813900        0.5131252745
H                0.6919415963        0.7675415182        0.9837226321
H                0.3080584008        0.2324584851        0.4837226336
H                0.6919415992        0.2324584851        0.4837226336
H                0.3080584037        0.7675415182        0.9837226321
H                0.1919415861        0.2675415102        0.9837226557
H                0.8080584105        0.7324584904        0.4837226482
H                0.1919415895        0.7324584904        0.4837226482
H                0.8080584139        0.2675415102        0.9837226557



     Writing config-only to output data dir ./iceIh/iceIh.save/ :
     XML data file
     NEW-OLD atomic charge density approx. for the potential

     total cpu time spent up to now is      767.4 secs

     per-process dynamical memory:    57.9 Mb

     Self-consistent Calculation

     iteration #  1     ecut=    90.00 Ry     beta= 0.70
     Davidson diagonalization with overlap
     ethr =  1.00E-06,  avg # of iterations =  2.0

     Threshold (ethr) on eigenvalues was too large:
     Diagonalizing with lowered threshold

     Davidson diagonalization with overlap
     ethr =  1.20E-08,  avg # of iterations =  3.0

     total cpu time spent up to now is      786.1 secs

     total energy              =    -276.01322029 Ry
     estimated scf accuracy    <       0.00000965 Ry

     iteration #  2     ecut=    90.00 Ry     beta= 0.70
     Davidson diagonalization with overlap
     ethr =  1.51E-08,  avg # of iterations =  3.0

     total cpu time spent up to now is      795.9 secs

     total energy              =    -276.01322181 Ry
     estimated scf accuracy    <       0.00000499 Ry

     iteration #  3     ecut=    90.00 Ry     beta= 0.70
     Davidson diagonalization with overlap
     ethr =  7.80E-09,  avg # of iterations =  3.0

     total cpu time spent up to now is      805.2 secs

     total energy              =    -276.01322308 Ry
     estimated scf accuracy    <       0.00000017 Ry

     iteration #  4     ecut=    90.00 Ry     beta= 0.70
     Davidson diagonalization with overlap
     ethr =  2.71E-10,  avg # of iterations =  3.1

     total cpu time spent up to now is      813.8 secs

     total energy              =    -276.01322309 Ry
     estimated scf accuracy    <       0.00000005 Ry

     iteration #  5     ecut=    90.00 Ry     beta= 0.70
     Davidson diagonalization with overlap
     ethr =  7.82E-11,  avg # of iterations =  4.4

     total cpu time spent up to now is      825.0 secs

     total energy              =    -276.01322311 Ry
     estimated scf accuracy    <       0.00000003 Ry

     iteration #  6     ecut=    90.00 Ry     beta= 0.70
     Davidson diagonalization with overlap
     ethr =  4.73E-11,  avg # of iterations =  2.9

     total cpu time spent up to now is      833.5 secs

     End of self-consistent calculation

     Number of k-points >= 100: set verbosity='high' to print the bands.

     highest occupied level (ev):    -2.5592

!    total energy              =    -276.01322312 Ry
     estimated scf accuracy    <          2.8E-11 Ry

     The total energy is the sum of the following terms:
     one-electron contribution =    -218.10042563 Ry
     hartree contribution      =     131.53522106 Ry
     xc contribution           =     -67.94197781 Ry
     ewald contribution        =    -121.50604074 Ry

     convergence has been achieved in   6 iterations

     Forces acting on atoms (cartesian axes, Ry/au):

     atom    1 type  2   force =     0.00000000    0.00033409   -0.00031103
     atom    2 type  2   force =     0.00000000   -0.00033408   -0.00031105
     atom    3 type  2   force =     0.00000000    0.00033412   -0.00031100
     atom    4 type  2   force =     0.00000000   -0.00033411   -0.00031102
     atom    5 type  2   force =     0.00000000   -0.00112090   -0.00043692
     atom    6 type  2   force =     0.00000000    0.00112090   -0.00043694
     atom    7 type  2   force =     0.00000000   -0.00112090   -0.00043692
     atom    8 type  2   force =     0.00000000    0.00112090   -0.00043693
     atom    9 type  1   force =     0.00000000   -0.00024619   -0.00026155
     atom   10 type  1   force =     0.00000000    0.00024619   -0.00026154
     atom   11 type  1   force =     0.00000000   -0.00024615   -0.00026157
     atom   12 type  1   force =     0.00000000    0.00024616   -0.00026156
     atom   13 type  1   force =     0.00000000    0.00048064    0.00033518
     atom   14 type  1   force =     0.00000000   -0.00048065    0.00033520
     atom   15 type  1   force =     0.00000000    0.00048064    0.00033514
     atom   16 type  1   force =     0.00000000   -0.00048065    0.00033516
     atom   17 type  1   force =     0.00049112   -0.00023936    0.00033717
     atom   18 type  1   force =    -0.00049112    0.00023936    0.00033718
     atom   19 type  1   force =     0.00049112    0.00023936    0.00033718
     atom   20 type  1   force =    -0.00049112   -0.00023936    0.00033717
     atom   21 type  1   force =     0.00049114   -0.00023935    0.00033716
     atom   22 type  1   force =    -0.00049113    0.00023935    0.00033717
     atom   23 type  1   force =     0.00049113    0.00023935    0.00033717
     atom   24 type  1   force =    -0.00049114   -0.00023935    0.00033716

     Total force =     0.003437     Total SCF correction =     0.000016


     Computing stress (Cartesian axis) and pressure

          total   stress  (Ry/bohr**3)                   (kbar)     P=       17.54
   0.00011142   0.00000000   0.00000000           16.39        0.00        0.00
   0.00000000   0.00012266   0.00000000            0.00       18.04        0.00
   0.00000000   0.00000000   0.00012364            0.00        0.00       18.19

     Energy error            =      2.6E-05 Ry
     Gradient error          =      1.1E-03 Ry/Bohr

[...]
     atom   13 type  1   force =     0.00000000   -0.00015930   -0.00047824
     atom   14 type  1   force =     0.00000000    0.00015936   -0.00047828
     atom   15 type  1   force =     0.00000000   -0.00015928   -0.00047823
     atom   16 type  1   force =     0.00000000    0.00015936   -0.00047827
     atom   17 type  1   force =    -0.00023636   -0.00014346   -0.00013165
     atom   18 type  1   force =     0.00023637    0.00014345   -0.00013166
     atom   19 type  1   force =    -0.00023637    0.00014345   -0.00013166
     atom   20 type  1   force =     0.00023636   -0.00014346   -0.00013165
     atom   21 type  1   force =    -0.00023636   -0.00014347   -0.00013164
     atom   22 type  1   force =     0.00023637    0.00014346   -0.00013165
     atom   23 type  1   force =    -0.00023637    0.00014346   -0.00013165
     atom   24 type  1   force =     0.00023636   -0.00014347   -0.00013164

     Total force =     0.001678     Total SCF correction =     0.000010


     Computing stress (Cartesian axis) and pressure

          total   stress  (Ry/bohr**3)                   (kbar)     P=       17.42
   0.00011479   0.00000000   0.00000000           16.89        0.00        0.00
   0.00000000   0.00011999  -0.00000000            0.00       17.65       -0.00
   0.00000000  -0.00000000   0.00012056            0.00       -0.00       17.74

     Energy error            =      8.1E-06 Ry
     Gradient error          =      4.8E-04 Ry/Bohr

     number of scf cycles    =  31
     number of bfgs steps    =  30

     energy             old  =    -276.0133795340 Ry
     energy             new  =    -276.0133876043 Ry

     CASE: energy            _new < energy            _old

     new trust radius        =       0.0055599979 bohr
     new conv_thr            =       0.0000000010 Ry


ATOMIC_POSITIONS (crystal)
O                0.0000000000        0.6629546925        0.0581128035
O                0.0000000000        0.3370452964        0.5581128202
O                0.5000000000        0.1629546690        0.0581127867
O                0.5000000000        0.8370453200        0.5581128173
O                0.5000000000        0.8297433980        0.9339464453
O                0.5000000000        0.1702566082        0.4339464306
O                0.0000000000        0.3297434223        0.9339464376
O                0.0000000000        0.6702565860        0.4339464301
H                0.0000000000        0.6638589694        0.2047959681
H                0.0000000000        0.3361410257        0.7047959622
H                0.5000000000        0.1638589767        0.2047959540
H                0.5000000000        0.8361410218        0.7047959568
H                0.0000000000        0.5312295645        0.0147643603
H                0.0000000000        0.4687704384        0.5147643645
H                0.5000000000        0.0312295353        0.0147643671
H                0.5000000000        0.9687704715        0.5147643788
H                0.6921312886        0.7621537467        0.9831902407
H                0.3078687188        0.2378462542        0.4831902242
H                0.6921312812        0.2378462542        0.4831902242
H                0.3078687114        0.7621537467        0.9831902407
H                0.1921312856        0.2621537588        0.9831902151
H                0.8078687214        0.7378462425        0.4831902113
H                0.1921312786        0.7378462425        0.4831902113
H                0.8078687144        0.2621537588        0.9831902151



     Writing config-only to output data dir ./iceIh/iceIh.save/ :
     XML data file
     NEW-OLD atomic charge density approx. for the potential

     total cpu time spent up to now is     2305.8 secs

     per-process dynamical memory:    58.3 Mb

     Self-consistent Calculation

     iteration #  1     ecut=    90.00 Ry     beta= 0.70
     Davidson diagonalization with overlap
     ethr =  1.00E-06,  avg # of iterations =  3.0

     Threshold (ethr) on eigenvalues was too large:
     Diagonalizing with lowered threshold

     Davidson diagonalization with overlap
     ethr =  2.33E-08,  avg # of iterations =  3.0

     total cpu time spent up to now is     2326.3 secs

     total energy              =    -276.01338955 Ry
     estimated scf accuracy    <       0.00001835 Ry

     iteration #  2     ecut=    90.00 Ry     beta= 0.70
     Davidson diagonalization with overlap
     ethr =  2.87E-08,  avg # of iterations =  2.0

     total cpu time spent up to now is     2333.7 secs

     total energy              =    -276.01339209 Ry
     estimated scf accuracy    <       0.00000087 Ry

     iteration #  3     ecut=    90.00 Ry     beta= 0.70
     Davidson diagonalization with overlap
     ethr =  1.37E-09,  avg # of iterations =  2.8

     total cpu time spent up to now is     2343.4 secs

     total energy              =    -276.01339229 Ry
     estimated scf accuracy    <       0.00000014 Ry

     iteration #  4     ecut=    90.00 Ry     beta= 0.70
     Davidson diagonalization with overlap
     ethr =  2.18E-10,  avg # of iterations =  3.0

     total cpu time spent up to now is     2353.1 secs

     total energy              =    -276.01339233 Ry
     estimated scf accuracy    <       0.00000004 Ry

     iteration #  5     ecut=    90.00 Ry     beta= 0.70
     Davidson diagonalization with overlap
     ethr =  6.49E-11,  avg # of iterations =  2.0

     total cpu time spent up to now is     2361.1 secs

     total energy              =    -276.01339234 Ry
     estimated scf accuracy    <          2.3E-09 Ry

     iteration #  6     ecut=    90.00 Ry     beta= 0.70
     Davidson diagonalization with overlap
     ethr =  3.65E-12,  avg # of iterations =  4.8

     total cpu time spent up to now is     2372.4 secs

     End of self-consistent calculation

     Number of k-points >= 100: set verbosity='high' to print the bands.

     highest occupied level (ev):    -2.5651

!    total energy              =    -276.01339234 Ry
     estimated scf accuracy    <          7.5E-10 Ry

     The total energy is the sum of the following terms:
     one-electron contribution =    -218.03830762 Ry
     hartree contribution      =     131.50300762 Ry
     xc contribution           =     -67.94089237 Ry
     ewald contribution        =    -121.53719998 Ry

     convergence has been achieved in   6 iterations

     Forces acting on atoms (cartesian axes, Ry/au):

     atom    1 type  2   force =     0.00000000    0.00001690    0.00014457
     atom    2 type  2   force =     0.00000000   -0.00001671    0.00014428
     atom    3 type  2   force =     0.00000000    0.00001696    0.00014462
     atom    4 type  2   force =     0.00000000   -0.00001672    0.00014426
     atom    5 type  2   force =     0.00000000    0.00005591    0.00000881
     atom    6 type  2   force =     0.00000000   -0.00005600    0.00000875
     atom    7 type  2   force =     0.00000000    0.00005590    0.00000881
     atom    8 type  2   force =     0.00000000   -0.00005598    0.00000877
     atom    9 type  1   force =     0.00000000   -0.00000717    0.00019310
     atom   10 type  1   force =     0.00000000    0.00000716    0.00019330
     atom   11 type  1   force =     0.00000000   -0.00000718    0.00019306
     atom   12 type  1   force =     0.00000000    0.00000718    0.00019330
     atom   13 type  1   force =     0.00000000   -0.00000565   -0.00014835
     atom   14 type  1   force =     0.00000000    0.00000549   -0.00014830
     atom   15 type  1   force =     0.00000000   -0.00000566   -0.00014836
     atom   16 type  1   force =     0.00000000    0.00000546   -0.00014830
     atom   17 type  1   force =    -0.00006084   -0.00004572   -0.00009906
     atom   18 type  1   force =     0.00006079    0.00004575   -0.00009903
     atom   19 type  1   force =    -0.00006079    0.00004575   -0.00009903
     atom   20 type  1   force =     0.00006084   -0.00004572   -0.00009906
     atom   21 type  1   force =    -0.00006083   -0.00004573   -0.00009905
     atom   22 type  1   force =     0.00006079    0.00004575   -0.00009902
     atom   23 type  1   force =    -0.00006079    0.00004575   -0.00009902
     atom   24 type  1   force =     0.00006083   -0.00004573   -0.00009905

     Total force =     0.000678     Total SCF correction =     0.000019


     Computing stress (Cartesian axis) and pressure

          total   stress  (Ry/bohr**3)                   (kbar)     P=       17.33
   0.00011562   0.00000000   0.00000000           17.01        0.00        0.00
   0.00000000   0.00011918   0.00000000            0.00       17.53        0.00
   0.00000000   0.00000000   0.00011863            0.00        0.00       17.45

     Energy error            =      4.7E-06 Ry
     Gradient error          =      1.9E-04 Ry/Bohr

     number of scf cycles    =  32
     number of bfgs steps    =  31

     energy             old  =    -276.0133876043 Ry
     energy             new  =    -276.0133923394 Ry

     CASE: energy            _new < energy            _old

     new trust radius        =       0.0013578804 bohr
     new conv_thr            =       0.0000000010 Ry


ATOMIC_POSITIONS (crystal)
O                0.0000000000        0.6629169785        0.0581467659
O                0.0000000000        0.3370830264        0.5581467592
O                0.5000000000        0.1629169664        0.0581467474
O                0.5000000000        0.8370830434        0.5581467489
O                0.5000000000        0.8296984879        0.9339419475
O                0.5000000000        0.1703015108        0.4339419273
O                0.0000000000        0.3296985123        0.9339419385
O                0.0000000000        0.6703014898        0.4339419277
H                0.0000000000        0.6638805019        0.2048440249
H                0.0000000000        0.3361194935        0.7048440394
H                0.5000000000        0.1638805139        0.2048440018
H                0.5000000000        0.8361194844        0.7048440292
H                0.0000000000        0.5311954667        0.0147759885
H                0.0000000000        0.4688045235        0.5147759990
H                0.5000000000        0.0311954425        0.0147759914
H                0.5000000000        0.9688045474        0.5147760102
H                0.6921075481        0.7620668805        0.9831456693
H                0.3078924519        0.2379331220        0.4831456562
H                0.6921075481        0.2379331220        0.4831456562
H                0.3078924519        0.7620668805        0.9831456693
H                0.1921075464        0.2620668925        0.9831456426
H                0.8078924542        0.7379331104        0.4831456416
H                0.1921075458        0.7379331104        0.4831456416
H                0.8078924536        0.2620668925        0.9831456426



     Writing config-only to output data dir ./iceIh/iceIh.save/ :
     XML data file
     NEW-OLD atomic charge density approx. for the potential

     total cpu time spent up to now is     2380.6 secs

     per-process dynamical memory:    58.3 Mb

     Self-consistent Calculation

     iteration #  1     ecut=    90.00 Ry     beta= 0.70
     Davidson diagonalization with overlap
     ethr =  1.00E-06,  avg # of iterations =  2.0

     Threshold (ethr) on eigenvalues was too large:
     Diagonalizing with lowered threshold

     Davidson diagonalization with overlap
     ethr =  5.17E-10,  avg # of iterations =  4.4

     total cpu time spent up to now is     2401.4 secs

     total energy              =    -276.01339317 Ry
     estimated scf accuracy    <       0.00000046 Ry

     iteration #  2     ecut=    90.00 Ry     beta= 0.70
     Davidson diagonalization with overlap
     ethr =  7.14E-10,  avg # of iterations =  2.0

     total cpu time spent up to now is     2409.1 secs

     total energy              =    -276.01339323 Ry
     estimated scf accuracy    <       0.00000005 Ry

     iteration #  3     ecut=    90.00 Ry     beta= 0.70
     Davidson diagonalization with overlap
     ethr =  8.17E-11,  avg # of iterations =  3.0

     total cpu time spent up to now is     2419.1 secs

     total energy              =    -276.01339324 Ry
     estimated scf accuracy    <       0.00000002 Ry

     iteration #  4     ecut=    90.00 Ry     beta= 0.70
     Davidson diagonalization with overlap
     ethr =  3.88E-11,  avg # of iterations =  2.5

     total cpu time spent up to now is     2427.4 secs

     End of self-consistent calculation

     Number of k-points >= 100: set verbosity='high' to print the bands.

     highest occupied level (ev):    -2.5654

!    total energy              =    -276.01339325 Ry
     estimated scf accuracy    <          3.9E-10 Ry

     The total energy is the sum of the following terms:
     one-electron contribution =    -218.03508296 Ry
     hartree contribution      =     131.50151993 Ry
     xc contribution           =     -67.94066996 Ry
     ewald contribution        =    -121.53916025 Ry

     convergence has been achieved in   4 iterations

     Forces acting on atoms (cartesian axes, Ry/au):

     atom    1 type  2   force =     0.00000000   -0.00000123    0.00006531
     atom    2 type  2   force =     0.00000000    0.00000108    0.00006558
     atom    3 type  2   force =     0.00000000   -0.00000126    0.00006528
     atom    4 type  2   force =     0.00000000    0.00000105    0.00006561
     atom    5 type  2   force =     0.00000000   -0.00001510   -0.00003012
     atom    6 type  2   force =     0.00000000    0.00001517   -0.00003005
     atom    7 type  2   force =     0.00000000   -0.00001513   -0.00003012
     atom    8 type  2   force =     0.00000000    0.00001518   -0.00003005
     atom    9 type  1   force =     0.00000000   -0.00009410    0.00008623
     atom   10 type  1   force =     0.00000000    0.00009411    0.00008605
     atom   11 type  1   force =     0.00000000   -0.00009411    0.00008625
     atom   12 type  1   force =     0.00000000    0.00009412    0.00008603
     atom   13 type  1   force =     0.00000000    0.00004384   -0.00002497
     atom   14 type  1   force =     0.00000000   -0.00004369   -0.00002503
     atom   15 type  1   force =     0.00000000    0.00004388   -0.00002497
     atom   16 type  1   force =     0.00000000   -0.00004369   -0.00002505
     atom   17 type  1   force =     0.00001278    0.00000211   -0.00004824
     atom   18 type  1   force =    -0.00001274   -0.00000214   -0.00004827
     atom   19 type  1   force =     0.00001274   -0.00000214   -0.00004827
     atom   20 type  1   force =    -0.00001278    0.00000211   -0.00004824
     atom   21 type  1   force =     0.00001278    0.00000211   -0.00004823
     atom   22 type  1   force =    -0.00001274   -0.00000213   -0.00004825
     atom   23 type  1   force =     0.00001274   -0.00000213   -0.00004825
     atom   24 type  1   force =    -0.00001278    0.00000211   -0.00004823

     Total force =     0.000342     Total SCF correction =     0.000041
     SCF correction compared to forces is large: reduce conv_thr to get better values


     Computing stress (Cartesian axis) and pressure

          total   stress  (Ry/bohr**3)                   (kbar)     P=       17.30
   0.00011591   0.00000000   0.00000000           17.05        0.00        0.00
   0.00000000   0.00011866  -0.00000000            0.00       17.46       -0.00
   0.00000000  -0.00000000   0.00011823            0.00       -0.00       17.39

     Energy error            =      9.1E-07 Ry
     Gradient error          =      9.4E-05 Ry/Bohr

     bfgs converged in  33 scf cycles and  32 bfgs steps
     (criteria: energy <  1.0E-04 Ry, force <  1.0E-04 Ry/Bohr)

     End of BFGS Geometry Optimization

     Final energy             =    -276.0133932458 Ry

     File ./iceIh/iceIh.bfgs deleted, as requested
Begin final coordinates

ATOMIC_POSITIONS (crystal)
O                0.0000000000        0.6629169785        0.0581467659
O                0.0000000000        0.3370830264        0.5581467592
O                0.5000000000        0.1629169664        0.0581467474
O                0.5000000000        0.8370830434        0.5581467489
O                0.5000000000        0.8296984879        0.9339419475
O                0.5000000000        0.1703015108        0.4339419273
O                0.0000000000        0.3296985123        0.9339419385
O                0.0000000000        0.6703014898        0.4339419277
H                0.0000000000        0.6638805019        0.2048440249
H                0.0000000000        0.3361194935        0.7048440394
H                0.5000000000        0.1638805139        0.2048440018
H                0.5000000000        0.8361194844        0.7048440292
H                0.0000000000        0.5311954667        0.0147759885
H                0.0000000000        0.4688045235        0.5147759990
H                0.5000000000        0.0311954425        0.0147759914
H                0.5000000000        0.9688045474        0.5147760102
H                0.6921075481        0.7620668805        0.9831456693
H                0.3078924519        0.2379331220        0.4831456562
H                0.6921075481        0.2379331220        0.4831456562
H                0.3078924519        0.7620668805        0.9831456693
H                0.1921075464        0.2620668925        0.9831456426
H                0.8078924542        0.7379331104        0.4831456416
H                0.1921075458        0.7379331104        0.4831456416
H                0.8078924536        0.2620668925        0.9831456426
End final coordinates



     Writing all to output data dir ./iceIh/iceIh.save/ :
     XML data file, charge density, pseudopotentials, collected wavefunctions

     init_run     :      4.32s CPU      4.41s WALL (       1 calls)
     electrons    :   2122.94s CPU   2161.17s WALL (      33 calls)
     update_pot   :      0.39s CPU      0.43s WALL (      32 calls)
     forces       :     16.56s CPU     16.65s WALL (      33 calls)
     stress       :    246.94s CPU    247.09s WALL (      33 calls)

     Called by init_run:
     wfcinit      :      3.88s CPU      3.92s WALL (       1 calls)
     potinit      :      0.02s CPU      0.03s WALL (       1 calls)
     hinit0       :      0.35s CPU      0.36s WALL (       1 calls)

     Called by electrons:
     c_bands      :   1892.77s CPU   1926.80s WALL (     223 calls)
     sum_band     :    226.96s CPU    229.19s WALL (     223 calls)
     v_of_rho     :      2.26s CPU      2.28s WALL (     229 calls)
     newd         :      0.43s CPU      0.44s WALL (     229 calls)
     mix_rho      :      0.29s CPU      0.30s WALL (     223 calls)

     Called by c_bands:
     init_us_2    :     27.46s CPU     28.50s WALL (   58995 calls)
     cegterg      :   1823.64s CPU   1840.55s WALL (   25645 calls)

     Called by *egterg:
     cdiaghg      :    168.02s CPU    168.82s WALL (   95144 calls)
     h_psi        :   1373.68s CPU   1388.48s WALL (  102044 calls)
     s_psi        :     53.89s CPU     54.30s WALL (  102044 calls)
     g_psi        :      4.84s CPU      4.86s WALL (   76284 calls)

     Called by h_psi:
     h_psi:calbec :     81.95s CPU     82.72s WALL (  102044 calls)
     vloc_psi     :   1225.79s CPU   1239.09s WALL (  102044 calls)
     add_vuspsi   :     57.05s CPU     57.59s WALL (  102044 calls)

     General routines
     calbec       :    115.52s CPU    116.63s WALL (  146664 calls)
     fft          :      1.58s CPU      1.59s WALL (    2842 calls)
     ffts         :      0.10s CPU      0.10s WALL (     223 calls)
     fftw         :   1287.62s CPU   1301.09s WALL ( 5924442 calls)

     Parallel routines

     PWSCF        :  39m56.62s CPU  40m44.30s WALL


   This run was terminated on:  21:58:48  31Mar2026            

=------------------------------------------------------------------------------=
   JOB DONE.
=------------------------------------------------------------------------------=
