
     Program PWSCF v.7.3.1 starts on 20Mar2026 at 21: 3:51 

     This program is part of the open-source Quantum ESPRESSO suite
     for quantum simulation of materials; please cite
         "P. Giannozzi et al., J. Phys.:Condens. Matter 21 395502 (2009);
         "P. Giannozzi et al., J. Phys.:Condens. Matter 29 465901 (2017);
         "P. Giannozzi et al., J. Chem. Phys. 152 154105 (2020);
          URL http://www.quantum-espresso.org", 
     in publications or presentations arising from this work. More details at
     http://www.quantum-espresso.org/quote

     Parallel version (MPI), running on   128 processors

     MPI processes distributed on     1 nodes
     237920 MiB available memory on the printing compute node when the environment starts

     Waiting for input...
     Reading input from standard input

     Current dimensions of program PWSCF are:
     Max number of different atomic species (ntypx) = 10
     Max number of k-points (npk) =  40000
     Max angular momentum in pseudopotentials (lmaxx) =  4
     Found identity + ( -0.5000 -0.5000  0.0000) symmetry
     This is a supercell, fractional translations are disabled

     K-points division:     npool     =       4
     R & G space division:  proc/nbgrp/npool/nimage =      32
     Subspace diagonalization in iterative solution of the eigenvalue problem:
     a serial algorithm will be used


     Parallelization info
     --------------------
     sticks:   dense  smooth     PW     G-vecs:    dense   smooth      PW
     Min         100     100     27                 5294     5294     769
     Max         101     101     28                 5299     5299     776
     Sum        3221    3221    889               169511   169511   24729

     Using Slab Decomposition



     bravais-lattice index     =            8
     lattice parameter (alat)  =       8.0481  a.u.
     unit-cell volume          =    1469.7521 (a.u.)^3
     number of atoms/cell      =           24
     number of atomic types    =            2
     number of electrons       =        64.00
     number of Kohn-Sham states=           32
     kinetic-energy cutoff     =      90.0000  Ry
     charge density cutoff     =     360.0000  Ry
     scf convergence threshold =      1.0E-07
     mixing beta               =       0.7000
     number of iterations used =            8  plain     mixing
     Exchange-correlation=  SLA  PW   PBE  PBE
                           (   1   4   3   4   0   0   0)

     celldm(1)=   8.048139  celldm(2)=   1.732119  celldm(3)=   1.627721
     celldm(4)=   0.000000  celldm(5)=   0.000000  celldm(6)=   0.000000

     crystal axes: (cart. coord. in units of alat)
               a(1) = (   1.000000   0.000000   0.000000 )  
               a(2) = (   0.000000   1.732119   0.000000 )  
               a(3) = (   0.000000   0.000000   1.627721 )  

     reciprocal axes: (cart. coord. in units 2 pi/alat)
               b(1) = (  1.000000  0.000000  0.000000 )  
               b(2) = (  0.000000  0.577328  0.000000 )  
               b(3) = (  0.000000  0.000000  0.614356 )  


     PseudoPot. # 1 for H  read from file:
     ./H.pbe-van_ak.UPF
     MD5 check sum: 077eb6d537518a38cb46c6de387227b7
     Pseudo is Ultrasoft, Zval =  1.0
     Generated by new atomic code, or converted to UPF format
     Using radial grid of  615 points,  1 beta functions with: 
                l(1) =   0
     Q(r) pseudized with  8 coefficients,  rinner =    0.800

     PseudoPot. # 2 for O  read from file:
     ./O.pbe-van_ak.UPF
     MD5 check sum: 78c19812648e8988a0fe644b0f25305e
     Pseudo is Ultrasoft, Zval =  6.0
     Generated by new atomic code, or converted to UPF format
     Using radial grid of  737 points,  4 beta functions with: 
                l(1) =   0
                l(2) =   0
                l(3) =   1
                l(4) =   1
     Q(r) pseudized with  8 coefficients,  rinner =    0.800   0.800   0.800


     atomic species   valence    mass     pseudopotential
     H                 1.00     1.00800     H ( 1.00)
     O                 6.00    16.00000     O ( 1.00)

      2 Sym. Ops. (no inversion) found



   Cartesian axes

     site n.     atom                  positions (alat units)
         1        O      tau(   1) = (   0.0000000   1.1515127   0.1027092  )
         2        O      tau(   2) = (   0.0000000   0.5806063   0.9165697  )
         3        O      tau(   3) = (   0.5000000   0.2854532   0.1027092  )
         4        O      tau(   4) = (   0.5000000   1.4466659   0.9165697  )
         5        O      tau(   5) = (   0.5000000   1.4298643   1.5250118  )
         6        O      tau(   6) = (   0.5000000   0.3022548   0.7111513  )
         7        O      tau(   7) = (   0.0000000   0.5638048   1.5250118  )
         8        O      tau(   8) = (   0.0000000   1.1683143   0.7111513  )
         9        H      tau(   9) = (   0.0000000   1.1494343   0.3195216  )
        10        H      tau(  10) = (   0.0000000   0.5826848   1.1333822  )
        11        H      tau(  11) = (   0.5000000   0.2833747   0.3195216  )
        12        H      tau(  12) = (   0.5000000   1.4487443   1.1333822  )
        13        H      tau(  13) = (   0.0000000   0.9289355   0.0297873  )
        14        H      tau(  14) = (   0.0000000   0.8031836   0.8436478  )
        15        H      tau(  15) = (   0.5000000   0.0628759   0.0297873  )
        16        H      tau(  16) = (   0.5000000   1.6692431   0.8436478  )
        17        H      tau(  17) = (   0.6766000   1.3420459   1.5979337  )
        18        H      tau(  18) = (   0.3234000   0.3900732   0.7840732  )
        19        H      tau(  19) = (   0.6766000   0.3900732   0.7840732  )
        20        H      tau(  20) = (   0.3234000   1.3420459   1.5979337  )
        21        H      tau(  21) = (   0.1766000   0.4759863   1.5979337  )
        22        H      tau(  22) = (   0.8234000   1.2561327   0.7840732  )
        23        H      tau(  23) = (   0.1766000   1.2561327   0.7840732  )
        24        H      tau(  24) = (   0.8234000   0.4759863   1.5979337  )

     number of k points=   460

     Number of k-points >= 100: set verbosity='high' to print them.

     Dense  grid:   169511 G-vectors     FFT dimensions: (  50,  90,  80)

     Estimated max dynamical RAM per process >      44.63 MB

     Estimated total dynamical RAM >       5.46 GB

     Initial potential from superposition of free atoms

     starting charge      63.9998, renormalised to      64.0000
     Starting wfcs are   48 randomized atomic wfcs

     total cpu time spent up to now is        4.7 secs

     per-process dynamical memory:    52.5 Mb

     Self-consistent Calculation

     iteration #  1     ecut=    90.00 Ry     beta= 0.70
     Davidson diagonalization with overlap
     ethr =  1.00E-02,  avg # of iterations =  2.0

     total cpu time spent up to now is       13.2 secs

     total energy              =    -274.57754077 Ry
     estimated scf accuracy    <       3.09006184 Ry

     iteration #  2     ecut=    90.00 Ry     beta= 0.70
     Davidson diagonalization with overlap
     ethr =  4.83E-03,  avg # of iterations =  3.0

     total cpu time spent up to now is       24.0 secs

     total energy              =    -275.57434390 Ry
     estimated scf accuracy    <       1.33954930 Ry

     iteration #  3     ecut=    90.00 Ry     beta= 0.70
     Davidson diagonalization with overlap
     ethr =  2.09E-03,  avg # of iterations =  2.0

     total cpu time spent up to now is       32.0 secs

     total energy              =    -275.73819798 Ry
     estimated scf accuracy    <       0.05150082 Ry

     iteration #  4     ecut=    90.00 Ry     beta= 0.70
     Davidson diagonalization with overlap
     ethr =  8.05E-05,  avg # of iterations =  4.0

     total cpu time spent up to now is       43.8 secs

     total energy              =    -275.77396879 Ry
     estimated scf accuracy    <       0.06392864 Ry

     iteration #  5     ecut=    90.00 Ry     beta= 0.70
     Davidson diagonalization with overlap
     ethr =  8.05E-05,  avg # of iterations =  2.0

     total cpu time spent up to now is       51.6 secs

     total energy              =    -275.77800626 Ry
     estimated scf accuracy    <       0.00874120 Ry

     iteration #  6     ecut=    90.00 Ry     beta= 0.70
     Davidson diagonalization with overlap
     ethr =  1.37E-05,  avg # of iterations =  2.0

     total cpu time spent up to now is       59.8 secs

     total energy              =    -275.77884662 Ry
     estimated scf accuracy    <       0.00159520 Ry

     iteration #  7     ecut=    90.00 Ry     beta= 0.70
     Davidson diagonalization with overlap
     ethr =  2.49E-06,  avg # of iterations =  3.0

     total cpu time spent up to now is       68.7 secs

     total energy              =    -275.77920226 Ry
     estimated scf accuracy    <       0.00009109 Ry

     iteration #  8     ecut=    90.00 Ry     beta= 0.70
     Davidson diagonalization with overlap
     ethr =  1.42E-07,  avg # of iterations =  3.5

     total cpu time spent up to now is       78.7 secs

     total energy              =    -275.77923553 Ry
     estimated scf accuracy    <       0.00000504 Ry

     iteration #  9     ecut=    90.00 Ry     beta= 0.70
     Davidson diagonalization with overlap
     ethr =  7.87E-09,  avg # of iterations =  3.6

     total cpu time spent up to now is       89.9 secs

     total energy              =    -275.77924211 Ry
     estimated scf accuracy    <       0.00000731 Ry

     iteration # 10     ecut=    90.00 Ry     beta= 0.70
     Davidson diagonalization with overlap
     ethr =  7.87E-09,  avg # of iterations =  2.0

     total cpu time spent up to now is       97.0 secs

     total energy              =    -275.77923778 Ry
     estimated scf accuracy    <       0.00000978 Ry

     iteration # 11     ecut=    90.00 Ry     beta= 0.70
     Davidson diagonalization with overlap
     ethr =  7.87E-09,  avg # of iterations =  2.0

     total cpu time spent up to now is      105.9 secs

     total energy              =    -275.77923887 Ry
     estimated scf accuracy    <       0.00000059 Ry

     iteration # 12     ecut=    90.00 Ry     beta= 0.70
     Davidson diagonalization with overlap
     ethr =  9.26E-10,  avg # of iterations =  4.0

     total cpu time spent up to now is      116.9 secs

     End of self-consistent calculation

     Number of k-points >= 100: set verbosity='high' to print the bands.

     highest occupied level (ev):    -2.7219

!    total energy              =    -275.77923916 Ry
     estimated scf accuracy    <       0.00000007 Ry

     The total energy is the sum of the following terms:
     one-electron contribution =    -228.54237732 Ry
     hartree contribution      =     136.20575813 Ry
     xc contribution           =     -68.98225197 Ry
     ewald contribution        =    -114.46036801 Ry

     convergence has been achieved in  12 iterations

     Forces acting on atoms (cartesian axes, Ry/au):

     atom    1 type  2   force =     0.00000000    0.00396910   -0.15288408
     atom    2 type  2   force =     0.00000000   -0.00396970   -0.15288358
     atom    3 type  2   force =     0.00000000    0.00396691   -0.15288223
     atom    4 type  2   force =     0.00000000   -0.00396757   -0.15288183
     atom    5 type  2   force =     0.00000000    0.22254944   -0.16613364
     atom    6 type  2   force =     0.00000000   -0.22254895   -0.16613302
     atom    7 type  2   force =     0.00000000    0.22254962   -0.16613304
     atom    8 type  2   force =     0.00000000   -0.22254923   -0.16613276
     atom    9 type  1   force =     0.00000000   -0.00007536    0.15222215
     atom   10 type  1   force =     0.00000000    0.00007543    0.15222098
     atom   11 type  1   force =     0.00000000   -0.00007548    0.15222287
     atom   12 type  1   force =     0.00000000    0.00007554    0.15222160
     atom   13 type  1   force =     0.00000000   -0.00730182   -0.00552627
     atom   14 type  1   force =     0.00000000    0.00730201   -0.00552635
     atom   15 type  1   force =     0.00000000   -0.00730202   -0.00552628
     atom   16 type  1   force =     0.00000000    0.00730225   -0.00552639
     atom   17 type  1   force =     0.19029994   -0.11040492    0.08616016
     atom   18 type  1   force =    -0.19029975    0.11040489    0.08616010
     atom   19 type  1   force =     0.19029975    0.11040489    0.08616010
     atom   20 type  1   force =    -0.19029994   -0.11040492    0.08616016
     atom   21 type  1   force =     0.19030035   -0.11040519    0.08616039
     atom   22 type  1   force =    -0.19030012    0.11040514    0.08616029
     atom   23 type  1   force =     0.19030012    0.11040514    0.08616029
     atom   24 type  1   force =    -0.19030035   -0.11040519    0.08616039

     Total force =     0.970416     Total SCF correction =     0.000197


     Computing stress (Cartesian axis) and pressure

          total   stress  (Ry/bohr**3)                   (kbar)     P=      180.64
   0.00175395   0.00000000   0.00000000          258.01        0.00        0.00
   0.00000000   0.00062662   0.00000000            0.00       92.18        0.00
   0.00000000   0.00000000   0.00130340            0.00        0.00      191.74


     Writing all to output data dir ./iceIh/iceIh.save/ :
     XML data file, charge density, pseudopotentials, collected wavefunctions

     init_run     :      4.20s CPU      4.28s WALL (       1 calls)
     electrons    :    110.47s CPU    112.32s WALL (       1 calls)
     forces       :      0.50s CPU      0.51s WALL (       1 calls)
     stress       :      7.46s CPU      7.48s WALL (       1 calls)

     Called by init_run:
     wfcinit      :      3.74s CPU      3.80s WALL (       1 calls)
     potinit      :      0.02s CPU      0.03s WALL (       1 calls)
     hinit0       :      0.35s CPU      0.36s WALL (       1 calls)

     Called by electrons:
     c_bands      :     98.16s CPU     99.76s WALL (      12 calls)
     sum_band     :     12.11s CPU     12.25s WALL (      12 calls)
     v_of_rho     :      0.13s CPU      0.14s WALL (      13 calls)
     newd         :      0.03s CPU      0.03s WALL (      13 calls)
     mix_rho      :      0.03s CPU      0.03s WALL (      12 calls)

     Called by c_bands:
     init_us_2    :      1.43s CPU      1.48s WALL (    3105 calls)
     cegterg      :     94.99s CPU     95.92s WALL (    1380 calls)

     Called by *egterg:
     cdiaghg      :      8.92s CPU      8.97s WALL (    5255 calls)
     h_psi        :     74.51s CPU     75.37s WALL (    5370 calls)
     s_psi        :      2.89s CPU      2.91s WALL (    5370 calls)
     g_psi        :      0.25s CPU      0.25s WALL (    3875 calls)

     Called by h_psi:
     h_psi:calbec :      4.47s CPU      4.52s WALL (    5370 calls)
     vloc_psi     :     66.46s CPU     67.23s WALL (    5370 calls)
     add_vuspsi   :      3.07s CPU      3.10s WALL (    5370 calls)

     General routines
     calbec       :      5.92s CPU      5.98s WALL (    7325 calls)
     fft          :      0.39s CPU      0.41s WALL (     151 calls)
     ffts         :      0.01s CPU      0.01s WALL (      12 calls)
     fftw         :     69.69s CPU     70.47s WALL (  322350 calls)

     Parallel routines

     PWSCF        :   2m 5.14s CPU   2m12.65s WALL


   This run was terminated on:  21: 6: 4  20Mar2026            

=------------------------------------------------------------------------------=
   JOB DONE.
=------------------------------------------------------------------------------=
