
     Program PWSCF v.7.3.1 starts on 31Mar2026 at 21:58:50 

     This program is part of the open-source Quantum ESPRESSO suite
     for quantum simulation of materials; please cite
         "P. Giannozzi et al., J. Phys.:Condens. Matter 21 395502 (2009);
         "P. Giannozzi et al., J. Phys.:Condens. Matter 29 465901 (2017);
         "P. Giannozzi et al., J. Chem. Phys. 152 154105 (2020);
          URL http://www.quantum-espresso.org", 
     in publications or presentations arising from this work. More details at
     http://www.quantum-espresso.org/quote

     Parallel version (MPI), running on   128 processors

     MPI processes distributed on     1 nodes
     495544 MiB available memory on the printing compute node when the environment starts

     Waiting for input...
     Reading input from standard input

     Current dimensions of program PWSCF are:
     Max number of different atomic species (ntypx) = 10
     Max number of k-points (npk) =  40000
     Max angular momentum in pseudopotentials (lmaxx) =  4
     Found identity + ( -0.5000 -0.5000  0.0000) symmetry
     This is a supercell, fractional translations are disabled

     K-points division:     npool     =       4
     R & G space division:  proc/nbgrp/npool/nimage =      32
     Subspace diagonalization in iterative solution of the eigenvalue problem:
     a serial algorithm will be used


     Parallelization info
     --------------------
     sticks:   dense  smooth     PW     G-vecs:    dense   smooth      PW
     Min         101     101     27                 5347     5347     775
     Max         102     102     28                 5352     5352     782
     Sum        3241    3241    889               171179   171179   24929

     Using Slab Decomposition



     bravais-lattice index     =            8
     lattice parameter (alat)  =       8.0737  a.u.
     unit-cell volume          =    1483.7794 (a.u.)^3
     number of atoms/cell      =           24
     number of atomic types    =            2
     number of electrons       =        64.00
     number of Kohn-Sham states=           32
     kinetic-energy cutoff     =      90.0000  Ry
     charge density cutoff     =     360.0000  Ry
     scf convergence threshold =      1.0E-07
     mixing beta               =       0.7000
     number of iterations used =            8  plain     mixing
     energy convergence thresh.=      1.0E-04
     force convergence thresh. =      1.0E-04
     Exchange-correlation=  SLA  PW   PBE  PBE
                           (   1   4   3   4   0   0   0)
     nstep                     =           50


     celldm(1)=   8.073662  celldm(2)=   1.732119  celldm(3)=   1.627721
     celldm(4)=   0.000000  celldm(5)=   0.000000  celldm(6)=   0.000000

     crystal axes: (cart. coord. in units of alat)
               a(1) = (   1.000000   0.000000   0.000000 )  
               a(2) = (   0.000000   1.732119   0.000000 )  
               a(3) = (   0.000000   0.000000   1.627721 )  

     reciprocal axes: (cart. coord. in units 2 pi/alat)
               b(1) = (  1.000000  0.000000  0.000000 )  
               b(2) = (  0.000000  0.577328  0.000000 )  
               b(3) = (  0.000000  0.000000  0.614356 )  


     PseudoPot. # 1 for H  read from file:
     ./H.pbe-van_ak.UPF
     MD5 check sum: 077eb6d537518a38cb46c6de387227b7
     Pseudo is Ultrasoft, Zval =  1.0
     Generated by new atomic code, or converted to UPF format
     Using radial grid of  615 points,  1 beta functions with: 
                l(1) =   0
     Q(r) pseudized with  8 coefficients,  rinner =    0.800

     PseudoPot. # 2 for O  read from file:
     ./O.pbe-van_ak.UPF
     MD5 check sum: 78c19812648e8988a0fe644b0f25305e
     Pseudo is Ultrasoft, Zval =  6.0
     Generated by new atomic code, or converted to UPF format
     Using radial grid of  737 points,  4 beta functions with: 
                l(1) =   0
                l(2) =   0
                l(3) =   1
                l(4) =   1
     Q(r) pseudized with  8 coefficients,  rinner =    0.800   0.800   0.800


     atomic species   valence    mass     pseudopotential
     H                 1.00     1.00800     H ( 1.00)
     O                 6.00    16.00000     O ( 1.00)

      2 Sym. Ops. (no inversion) found



   Cartesian axes

     site n.     atom                  positions (alat units)
         1        O      tau(   1) = (   0.0000000   1.1515127   0.1027092  )
         2        O      tau(   2) = (   0.0000000   0.5806063   0.9165697  )
         3        O      tau(   3) = (   0.5000000   0.2854532   0.1027092  )
         4        O      tau(   4) = (   0.5000000   1.4466659   0.9165697  )
         5        O      tau(   5) = (   0.5000000   1.4298643   1.5250118  )
         6        O      tau(   6) = (   0.5000000   0.3022548   0.7111513  )
         7        O      tau(   7) = (   0.0000000   0.5638048   1.5250118  )
         8        O      tau(   8) = (   0.0000000   1.1683143   0.7111513  )
         9        H      tau(   9) = (   0.0000000   1.1494343   0.3195216  )
        10        H      tau(  10) = (   0.0000000   0.5826848   1.1333822  )
        11        H      tau(  11) = (   0.5000000   0.2833747   0.3195216  )
        12        H      tau(  12) = (   0.5000000   1.4487443   1.1333822  )
        13        H      tau(  13) = (   0.0000000   0.9289355   0.0297873  )
        14        H      tau(  14) = (   0.0000000   0.8031836   0.8436478  )
        15        H      tau(  15) = (   0.5000000   0.0628759   0.0297873  )
        16        H      tau(  16) = (   0.5000000   1.6692431   0.8436478  )
        17        H      tau(  17) = (   0.6766000   1.3420459   1.5979337  )
        18        H      tau(  18) = (   0.3234000   0.3900732   0.7840732  )
        19        H      tau(  19) = (   0.6766000   0.3900732   0.7840732  )
        20        H      tau(  20) = (   0.3234000   1.3420459   1.5979337  )
        21        H      tau(  21) = (   0.1766000   0.4759863   1.5979337  )
        22        H      tau(  22) = (   0.8234000   1.2561327   0.7840732  )
        23        H      tau(  23) = (   0.1766000   1.2561327   0.7840732  )
        24        H      tau(  24) = (   0.8234000   0.4759863   1.5979337  )

     number of k points=   460

     Number of k-points >= 100: set verbosity='high' to print them.

     Dense  grid:   171179 G-vectors     FFT dimensions: (  50,  90,  80)

     Estimated max dynamical RAM per process >      45.02 MB

     Estimated total dynamical RAM >       5.51 GB

     Initial potential from superposition of free atoms

     starting charge      63.9998, renormalised to      64.0000
     Starting wfcs are   48 randomized atomic wfcs

     total cpu time spent up to now is        4.5 secs

     per-process dynamical memory:    52.7 Mb

     Self-consistent Calculation

     iteration #  1     ecut=    90.00 Ry     beta= 0.70
     Davidson diagonalization with overlap
     ethr =  1.00E-02,  avg # of iterations =  2.0

     total cpu time spent up to now is       13.1 secs

     total energy              =    -274.59772547 Ry
     estimated scf accuracy    <       3.07098536 Ry

     iteration #  2     ecut=    90.00 Ry     beta= 0.70
     Davidson diagonalization with overlap
     ethr =  4.80E-03,  avg # of iterations =  3.0

     total cpu time spent up to now is       23.8 secs

     total energy              =    -275.58725029 Ry
     estimated scf accuracy    <       1.35676058 Ry

     iteration #  3     ecut=    90.00 Ry     beta= 0.70
     Davidson diagonalization with overlap
     ethr =  2.12E-03,  avg # of iterations =  2.0

     total cpu time spent up to now is       32.0 secs

     total energy              =    -275.75458036 Ry
     estimated scf accuracy    <       0.05194938 Ry

     iteration #  4     ecut=    90.00 Ry     beta= 0.70
     Davidson diagonalization with overlap
     ethr =  8.12E-05,  avg # of iterations =  4.0

     total cpu time spent up to now is       43.8 secs

     total energy              =    -275.79091559 Ry
     estimated scf accuracy    <       0.06526091 Ry

     iteration #  5     ecut=    90.00 Ry     beta= 0.70
     Davidson diagonalization with overlap
     ethr =  8.12E-05,  avg # of iterations =  2.0

     total cpu time spent up to now is       51.6 secs

     total energy              =    -275.79497564 Ry
     estimated scf accuracy    <       0.00906850 Ry

     iteration #  6     ecut=    90.00 Ry     beta= 0.70
     Davidson diagonalization with overlap
     ethr =  1.42E-05,  avg # of iterations =  2.0

     total cpu time spent up to now is       59.7 secs

     total energy              =    -275.79583147 Ry
     estimated scf accuracy    <       0.00168855 Ry

     iteration #  7     ecut=    90.00 Ry     beta= 0.70
     Davidson diagonalization with overlap
     ethr =  2.64E-06,  avg # of iterations =  3.0

     total cpu time spent up to now is       68.6 secs

     total energy              =    -275.79617797 Ry
     estimated scf accuracy    <       0.00011722 Ry

     iteration #  8     ecut=    90.00 Ry     beta= 0.70
     Davidson diagonalization with overlap
     ethr =  1.83E-07,  avg # of iterations =  3.3

     total cpu time spent up to now is       78.5 secs

     total energy              =    -275.79621646 Ry
     estimated scf accuracy    <       0.00000670 Ry

     iteration #  9     ecut=    90.00 Ry     beta= 0.70
     Davidson diagonalization with overlap
     ethr =  1.05E-08,  avg # of iterations =  3.9

     total cpu time spent up to now is       90.1 secs

     total energy              =    -275.79622426 Ry
     estimated scf accuracy    <       0.00001217 Ry

     iteration # 10     ecut=    90.00 Ry     beta= 0.70
     Davidson diagonalization with overlap
     ethr =  1.05E-08,  avg # of iterations =  1.0

     total cpu time spent up to now is       96.3 secs

     total energy              =    -275.79622009 Ry
     estimated scf accuracy    <       0.00001030 Ry

     iteration # 11     ecut=    90.00 Ry     beta= 0.70
     Davidson diagonalization with overlap
     ethr =  1.05E-08,  avg # of iterations =  2.0

     total cpu time spent up to now is      105.0 secs

     total energy              =    -275.79622065 Ry
     estimated scf accuracy    <       0.00000122 Ry

     iteration # 12     ecut=    90.00 Ry     beta= 0.70
     Davidson diagonalization with overlap
     ethr =  1.91E-09,  avg # of iterations =  3.0

     total cpu time spent up to now is      115.0 secs

     End of self-consistent calculation

     Number of k-points >= 100: set verbosity='high' to print the bands.

     highest occupied level (ev):    -2.7664

!    total energy              =    -275.79622107 Ry
     estimated scf accuracy    <       0.00000005 Ry

     The total energy is the sum of the following terms:
     one-electron contribution =    -229.23094517 Ry
     hartree contribution      =     136.45363644 Ry
     xc contribution           =     -68.92037900 Ry
     ewald contribution        =    -114.09853334 Ry

     convergence has been achieved in  12 iterations

     Forces acting on atoms (cartesian axes, Ry/au):

     atom    1 type  2   force =     0.00000000   -0.00027781   -0.14690471
     atom    2 type  2   force =     0.00000000    0.00028192   -0.14690050
     atom    3 type  2   force =     0.00000000   -0.00028052   -0.14690260
     atom    4 type  2   force =     0.00000000    0.00027887   -0.14690278
     atom    5 type  2   force =     0.00000000    0.21529201   -0.16032212
     atom    6 type  2   force =     0.00000000   -0.21529297   -0.16032156
     atom    7 type  2   force =     0.00000000    0.21529083   -0.16031795
     atom    8 type  2   force =     0.00000000   -0.21528990   -0.16031973
     atom    9 type  1   force =     0.00000000   -0.00033833    0.14459441
     atom   10 type  1   force =     0.00000000    0.00033810    0.14459420
     atom   11 type  1   force =     0.00000000   -0.00033839    0.14459480
     atom   12 type  1   force =     0.00000000    0.00033805    0.14459357
     atom   13 type  1   force =     0.00000000   -0.00291563   -0.00374883
     atom   14 type  1   force =     0.00000000    0.00291572   -0.00374901
     atom   15 type  1   force =     0.00000000   -0.00291588   -0.00374904
     atom   16 type  1   force =     0.00000000    0.00291524   -0.00374884
     atom   17 type  1   force =     0.18250774   -0.10678631    0.08318862
     atom   18 type  1   force =    -0.18250814    0.10678632    0.08318882
     atom   19 type  1   force =     0.18250814    0.10678632    0.08318882
     atom   20 type  1   force =    -0.18250774   -0.10678631    0.08318862
     atom   21 type  1   force =     0.18250827   -0.10678685    0.08318904
     atom   22 type  1   force =    -0.18250778    0.10678618    0.08318886
     atom   23 type  1   force =     0.18250778    0.10678618    0.08318886
     atom   24 type  1   force =    -0.18250827   -0.10678685    0.08318904

     Total force =     0.933444     Total SCF correction =     0.000244


     Computing stress (Cartesian axis) and pressure

          total   stress  (Ry/bohr**3)                   (kbar)     P=      169.29
   0.00166151   0.00000000   0.00000000          244.42        0.00        0.00
   0.00000000   0.00056601  -0.00000000            0.00       83.26       -0.00
   0.00000000  -0.00000000   0.00122485            0.00       -0.00      180.18


     BFGS Geometry Optimization
     Energy error            =      0.0E+00 Ry
     Gradient error          =      2.2E-01 Ry/Bohr

     number of scf cycles    =   1
     number of bfgs steps    =   0

     energy             new  =    -275.7962210719 Ry

     new trust radius        =       0.2684288842 bohr
     new conv_thr            =       0.0000001000 Ry


ATOMIC_POSITIONS (crystal)
O                0.0000000000        0.6647801222        0.0519214601
O                0.0000000000        0.3352201711        0.5519217569
O                0.5000000000        0.1647799286        0.0519216207
O                0.5000000000        0.8352199533        0.5519215834
O                0.5000000000        0.8408950087        0.9247004942
O                0.5000000000        0.1591049223        0.4247005073
O                0.0000000000        0.3408949246        0.9247008116
O                0.0000000000        0.6591051417        0.4247006466
H                0.0000000000        0.6635758348        0.2073027438
H                0.0000000000        0.3364241486        0.7073027573
H                0.5000000000        0.1635758306        0.2073027736
H                0.5000000000        0.8364241454        0.7073027094
H                0.0000000000        0.5360915148        0.0180147378
H                0.0000000000        0.4639084916        0.5180147207
H                0.5000000000        0.0360914966        0.0180147225
H                0.5000000000        0.9639084576        0.5180147331
H                0.6992053034        0.7671639790        0.9880301448
H                0.3007946473        0.2328360222        0.4880301598
H                0.6992053527        0.2328360222        0.4880301598
H                0.3007946966        0.7671639790        0.9880301448
H                0.1992053691        0.2671639405        0.9880301766
H                0.8007946911        0.7328360121        0.4880301623
H                0.1992053089        0.7328360121        0.4880301623
H                0.8007946309        0.2671639405        0.9880301766



     Writing config-only to output data dir ./iceIh/iceIh.save/ :
     XML data file
     NEW-OLD atomic charge density approx. for the potential

     total cpu time spent up to now is      123.3 secs

     per-process dynamical memory:    55.8 Mb

     Self-consistent Calculation

     iteration #  1     ecut=    90.00 Ry     beta= 0.70
     Davidson diagonalization with overlap
     ethr =  1.00E-06,  avg # of iterations = 12.0

     total cpu time spent up to now is      153.5 secs

     total energy              =    -275.86911139 Ry
     estimated scf accuracy    <       0.20567209 Ry

     iteration #  2     ecut=    90.00 Ry     beta= 0.70
     Davidson diagonalization with overlap
     ethr =  3.21E-04,  avg # of iterations =  3.0

     total cpu time spent up to now is      163.4 secs

     total energy              =    -275.91817281 Ry
     estimated scf accuracy    <       0.05522234 Ry

     iteration #  3     ecut=    90.00 Ry     beta= 0.70
     Davidson diagonalization with overlap
     ethr =  8.63E-05,  avg # of iterations =  2.5

     total cpu time spent up to now is      172.2 secs

     total energy              =    -275.92919861 Ry
     estimated scf accuracy    <       0.00205886 Ry

     iteration #  4     ecut=    90.00 Ry     beta= 0.70
     Davidson diagonalization with overlap
     ethr =  3.22E-06,  avg # of iterations =  3.0

     total cpu time spent up to now is      182.3 secs

     total energy              =    -275.92982003 Ry
     estimated scf accuracy    <       0.00054491 Ry

     iteration #  5     ecut=    90.00 Ry     beta= 0.70
     Davidson diagonalization with overlap
     ethr =  8.51E-07,  avg # of iterations =  2.0

     total cpu time spent up to now is      190.7 secs

     total energy              =    -275.92988692 Ry
     estimated scf accuracy    <       0.00006534 Ry

     iteration #  6     ecut=    90.00 Ry     beta= 0.70
     Davidson diagonalization with overlap
     ethr =  1.02E-07,  avg # of iterations =  3.6

     total cpu time spent up to now is      201.3 secs

     total energy              =    -275.92990329 Ry
     estimated scf accuracy    <       0.00002773 Ry

     iteration #  7     ecut=    90.00 Ry     beta= 0.70
     Davidson diagonalization with overlap
     ethr =  4.33E-08,  avg # of iterations =  2.5

     total cpu time spent up to now is      210.9 secs

     total energy              =    -275.92991054 Ry
     estimated scf accuracy    <       0.00000057 Ry

     iteration #  8     ecut=    90.00 Ry     beta= 0.70
     Davidson diagonalization with overlap
     ethr =  8.91E-10,  avg # of iterations =  4.8

     total cpu time spent up to now is      223.2 secs

     total energy              =    -275.92991047 Ry
     estimated scf accuracy    <       0.00000143 Ry

     iteration #  9     ecut=    90.00 Ry     beta= 0.70
     Davidson diagonalization with overlap
     ethr =  8.91E-10,  avg # of iterations =  3.0

     total cpu time spent up to now is      232.6 secs

     End of self-consistent calculation

     Number of k-points >= 100: set verbosity='high' to print the bands.

     highest occupied level (ev):    -2.4088

!    total energy              =    -275.92991059 Ry
     estimated scf accuracy    <       0.00000008 Ry

     The total energy is the sum of the following terms:
     one-electron contribution =    -214.82232909 Ry
     hartree contribution      =     129.98140570 Ry
     xc contribution           =     -67.48210411 Ry
     ewald contribution        =    -123.60688309 Ry

     convergence has been achieved in   9 iterations

     Forces acting on atoms (cartesian axes, Ry/au):

     atom    1 type  2   force =     0.00000000    0.06741049    0.07661604
     atom    2 type  2   force =     0.00000000   -0.06741403    0.07661454
     atom    3 type  2   force =     0.00000000    0.06741269    0.07661513
     atom    4 type  2   force =     0.00000000   -0.06741149    0.07661501
     atom    5 type  2   force =     0.00000000   -0.08801821    0.07143730
     atom    6 type  2   force =     0.00000000    0.08801896    0.07143778
     atom    7 type  2   force =     0.00000000   -0.08801759    0.07143636
     atom    8 type  2   force =     0.00000000    0.08801714    0.07143624
     atom    9 type  1   force =     0.00000000    0.00839824   -0.03356842
     atom   10 type  1   force =     0.00000000   -0.00839749   -0.03356721
     atom   11 type  1   force =     0.00000000    0.00839777   -0.03356785
     atom   12 type  1   force =     0.00000000   -0.00839797   -0.03356762
     atom   13 type  1   force =     0.00000000   -0.04979612   -0.03236881
     atom   14 type  1   force =     0.00000000    0.04979845   -0.03236895
     atom   15 type  1   force =     0.00000000   -0.04979750   -0.03236896
     atom   16 type  1   force =     0.00000000    0.04979670   -0.03236889
     atom   17 type  1   force =    -0.04391724    0.03200528   -0.04105792
     atom   18 type  1   force =     0.04391768   -0.03200550   -0.04105799
     atom   19 type  1   force =    -0.04391768   -0.03200550   -0.04105799
     atom   20 type  1   force =     0.04391724    0.03200528   -0.04105792
     atom   21 type  1   force =    -0.04391733    0.03200501   -0.04105739
     atom   22 type  1   force =     0.04391708   -0.03200482   -0.04105755
     atom   23 type  1   force =    -0.04391708   -0.03200482   -0.04105755
     atom   24 type  1   force =     0.04391733    0.03200501   -0.04105739

     Total force =     0.386094     Total SCF correction =     0.000140


     Computing stress (Cartesian axis) and pressure

          total   stress  (Ry/bohr**3)                   (kbar)     P=      -32.39
  -0.00050159   0.00000000   0.00000000          -73.79        0.00        0.00
   0.00000000   0.00019371  -0.00000000            0.00       28.50       -0.00
   0.00000000  -0.00000000  -0.00035274            0.00       -0.00      -51.89

     Energy error            =      1.3E-01 Ry
     Gradient error          =      8.8E-02 Ry/Bohr

     number of scf cycles    =   2
     number of bfgs steps    =   1

     energy             old  =    -275.7962210719 Ry
     energy             new  =    -275.9299105885 Ry

     CASE: energy            _new < energy            _old

     new trust radius        =       0.0767567893 bohr
     new conv_thr            =       0.0000001000 Ry


ATOMIC_POSITIONS (crystal)
O                0.0000000000        0.6683535846        0.0559400379
O                0.0000000000        0.3316465290        0.5559402589
O                0.5000000000        0.1683535022        0.0559401512
O                0.5000000000        0.8316464403        0.5559401072
O                0.5000000000        0.8366471104        0.9283991253
O                0.5000000000        0.1633528587        0.4283991668
O                0.0000000000        0.3366470563        0.9283993984
O                0.0000000000        0.6633529878        0.4283992227
H                0.0000000000        0.6640204390        0.2057080876
H                0.0000000000        0.3359795839        0.7057081684
H                0.5000000000        0.1640204094        0.2057081497
H                0.5000000000        0.8359795551        0.7057080961
H                0.0000000000        0.5334457294        0.0161807645
H                0.0000000000        0.4665544009        0.5161807393
H                0.5000000000        0.0334456376        0.0161807403
H                0.5000000000        0.9665542731        0.5161807557
H                0.6957869840        0.7686531757        0.9858858586
H                0.3042130055        0.2313468142        0.4858858702
H                0.6957869945        0.2313468142        0.4858858702
H                0.3042130160        0.7686531757        0.9858858586
H                0.1957870432        0.2686531214        0.9858859215
H                0.8042129950        0.7313468399        0.4858858977
H                0.1957870050        0.7313468399        0.4858858977
H                0.8042129568        0.2686531214        0.9858859215



     Writing config-only to output data dir ./iceIh/iceIh.save/ :
     XML data file
     NEW-OLD atomic charge density approx. for the potential

     total cpu time spent up to now is      241.0 secs

     per-process dynamical memory:    58.0 Mb

     Self-consistent Calculation

     iteration #  1     ecut=    90.00 Ry     beta= 0.70
     Davidson diagonalization with overlap
     ethr =  1.00E-06,  avg # of iterations =  9.0

     total cpu time spent up to now is      263.8 secs

     total energy              =    -275.99250960 Ry
     estimated scf accuracy    <       0.01352986 Ry

     iteration #  2     ecut=    90.00 Ry     beta= 0.70
     Davidson diagonalization with overlap
     ethr =  2.11E-05,  avg # of iterations =  3.0

     total cpu time spent up to now is      273.4 secs

     total energy              =    -275.99530322 Ry
     estimated scf accuracy    <       0.00269019 Ry

     iteration #  3     ecut=    90.00 Ry     beta= 0.70
     Davidson diagonalization with overlap
     ethr =  4.20E-06,  avg # of iterations =  3.0

     total cpu time spent up to now is      282.9 secs

     total energy              =    -275.99595925 Ry
     estimated scf accuracy    <       0.00024103 Ry

     iteration #  4     ecut=    90.00 Ry     beta= 0.70
     Davidson diagonalization with overlap
     ethr =  3.77E-07,  avg # of iterations =  2.5

     total cpu time spent up to now is      291.5 secs

     total energy              =    -275.99600154 Ry
     estimated scf accuracy    <       0.00001441 Ry

     iteration #  5     ecut=    90.00 Ry     beta= 0.70
     Davidson diagonalization with overlap
     ethr =  2.25E-08,  avg # of iterations =  3.1

     total cpu time spent up to now is      301.5 secs

     total energy              =    -275.99600628 Ry
     estimated scf accuracy    <       0.00000153 Ry

     iteration #  6     ecut=    90.00 Ry     beta= 0.70
     Davidson diagonalization with overlap
     ethr =  2.40E-09,  avg # of iterations =  2.0

     total cpu time spent up to now is      309.2 secs

     total energy              =    -275.99600637 Ry
     estimated scf accuracy    <       0.00000018 Ry

     iteration #  7     ecut=    90.00 Ry     beta= 0.70
     Davidson diagonalization with overlap
     ethr =  2.76E-10,  avg # of iterations =  3.9

     total cpu time spent up to now is      320.4 secs

     total energy              =    -275.99600643 Ry
     estimated scf accuracy    <       0.00000010 Ry

     iteration #  8     ecut=    90.00 Ry     beta= 0.70
     Davidson diagonalization with overlap
     ethr =  1.58E-10,  avg # of iterations =  2.9

     total cpu time spent up to now is      329.6 secs

     End of self-consistent calculation

     Number of k-points >= 100: set verbosity='high' to print the bands.

     highest occupied level (ev):    -2.5157

!    total energy              =    -275.99600645 Ry
     estimated scf accuracy    <          2.3E-09 Ry

     The total energy is the sum of the following terms:
     one-electron contribution =    -216.26154646 Ry
     hartree contribution      =     130.63547043 Ry
     xc contribution           =     -67.63046972 Ry
     ewald contribution        =    -122.73946070 Ry

     convergence has been achieved in   8 iterations

     Forces acting on atoms (cartesian axes, Ry/au):

     atom    1 type  2   force =     0.00000000   -0.01927179    0.02484873
     atom    2 type  2   force =     0.00000000    0.01927207    0.02484709
     atom    3 type  2   force =     0.00000000   -0.01927205    0.02484790
     atom    4 type  2   force =     0.00000000    0.01927176    0.02484801
     atom    5 type  2   force =     0.00000000   -0.03471004    0.04145477
     atom    6 type  2   force =     0.00000000    0.03471024    0.04145481
     atom    7 type  2   force =     0.00000000   -0.03470958    0.04145400
     atom    8 type  2   force =     0.00000000    0.03470935    0.04145418
     atom    9 type  1   force =     0.00000000    0.00907715   -0.01772591
     atom   10 type  1   force =     0.00000000   -0.00907682   -0.01772505
     atom   11 type  1   force =     0.00000000    0.00907696   -0.01772559
     atom   12 type  1   force =     0.00000000   -0.00907703   -0.01772544
     atom   13 type  1   force =     0.00000000    0.01872035   -0.00937045
     atom   14 type  1   force =     0.00000000   -0.01872099   -0.00936997
     atom   15 type  1   force =     0.00000000    0.01872081   -0.00937022
     atom   16 type  1   force =     0.00000000   -0.01872050   -0.00937037
     atom   17 type  1   force =    -0.02482438    0.01422956   -0.01960347
     atom   18 type  1   force =     0.02482451   -0.01422959   -0.01960339
     atom   19 type  1   force =    -0.02482451   -0.01422959   -0.01960339
     atom   20 type  1   force =     0.02482438    0.01422956   -0.01960347
     atom   21 type  1   force =    -0.02482436    0.01422938   -0.01960311
     atom   22 type  1   force =     0.02482423   -0.01422930   -0.01960326
     atom   23 type  1   force =    -0.02482423   -0.01422930   -0.01960326
     atom   24 type  1   force =     0.02482436    0.01422938   -0.01960311

     Total force =     0.169150     Total SCF correction =     0.000082


     Computing stress (Cartesian axis) and pressure

          total   stress  (Ry/bohr**3)                   (kbar)     P=      -20.19
  -0.00021224   0.00000000   0.00000000          -31.22        0.00        0.00
   0.00000000  -0.00011928   0.00000000            0.00      -17.55        0.00
   0.00000000   0.00000000  -0.00008013            0.00        0.00      -11.79

     Energy error            =      6.6E-02 Ry
     Gradient error          =      4.1E-02 Ry/Bohr

     number of scf cycles    =   3
     number of bfgs steps    =   2

     energy             old  =    -275.9299105885 Ry
     energy             new  =    -275.9960064516 Ry

     CASE: energy            _new < energy            _old

     new trust radius        =       0.0831099396 bohr
     new conv_thr            =       0.0000001000 Ry


ATOMIC_POSITIONS (crystal)
O                0.0000000000        0.6666647153        0.0589559655
O                0.0000000000        0.3333354123        0.5589560026
O                0.5000000000        0.1666646152        0.0589559857
O                0.5000000000        0.8333353027        0.5589559525
O                0.5000000000        0.8327581256        0.9331811944
O                0.5000000000        0.1672418673        0.4331812418
O                0.0000000000        0.3327581199        0.9331813800
O                0.0000000000        0.6672418987        0.4331812241
H                0.0000000000        0.6649687240        0.2036320710
H                0.0000000000        0.3350313353        0.7036322496
H                0.5000000000        0.1649686729        0.2036321699
H                0.5000000000        0.8350312838        0.7036321344
H                0.0000000000        0.5351466805        0.0150441566
H                0.0000000000        0.4648533942        0.5150441820
H                0.5000000000        0.0351466296        0.0150441567
H                0.5000000000        0.9648533095        0.5150441558
H                0.6910831014        0.7702363218        0.9835931838
H                0.3089169125        0.2297636646        0.4835932036
H                0.6910830875        0.2297636646        0.4835932036
H                0.3089168986        0.7702363218        0.9835931838
H                0.1910831630        0.2702362481        0.9835932876
H                0.8089168498        0.7297637221        0.4835932467
H                0.1910831502        0.7297637221        0.4835932467
H                0.8089168370        0.2702362481        0.9835932876



     Writing config-only to output data dir ./iceIh/iceIh.save/ :
     XML data file
     NEW-OLD atomic charge density approx. for the potential

     total cpu time spent up to now is      337.9 secs

     per-process dynamical memory:    58.0 Mb

     Self-consistent Calculation

     iteration #  1     ecut=    90.00 Ry     beta= 0.70
     Davidson diagonalization with overlap
     ethr =  1.00E-06,  avg # of iterations =  9.0

     total cpu time spent up to now is      360.8 secs

     total energy              =    -276.00661039 Ry
     estimated scf accuracy    <       0.01491738 Ry

     iteration #  2     ecut=    90.00 Ry     beta= 0.70
     Davidson diagonalization with overlap
     ethr =  2.33E-05,  avg # of iterations =  3.0

     total cpu time spent up to now is      370.8 secs

     total energy              =    -276.01053253 Ry
     estimated scf accuracy    <       0.00375230 Ry

     iteration #  3     ecut=    90.00 Ry     beta= 0.70
     Davidson diagonalization with overlap
     ethr =  5.86E-06,  avg # of iterations =  2.0

     total cpu time spent up to now is      378.9 secs

     total energy              =    -276.01111407 Ry
     estimated scf accuracy    <       0.00013617 Ry

     iteration #  4     ecut=    90.00 Ry     beta= 0.70
     Davidson diagonalization with overlap
     ethr =  2.13E-07,  avg # of iterations =  3.0

     total cpu time spent up to now is      389.6 secs

     total energy              =    -276.01117793 Ry
     estimated scf accuracy    <       0.00006915 Ry

     iteration #  5     ecut=    90.00 Ry     beta= 0.70
     Davidson diagonalization with overlap
     ethr =  1.08E-07,  avg # of iterations =  2.0

     total cpu time spent up to now is      398.0 secs

     total energy              =    -276.01118522 Ry
     estimated scf accuracy    <       0.00000974 Ry

     iteration #  6     ecut=    90.00 Ry     beta= 0.70
     Davidson diagonalization with overlap
     ethr =  1.52E-08,  avg # of iterations =  3.0

     total cpu time spent up to now is      408.8 secs

     total energy              =    -276.01118783 Ry
     estimated scf accuracy    <       0.00000493 Ry

     iteration #  7     ecut=    90.00 Ry     beta= 0.70
     Davidson diagonalization with overlap
     ethr =  7.70E-09,  avg # of iterations =  2.0

     total cpu time spent up to now is      417.8 secs

     End of self-consistent calculation

     Number of k-points >= 100: set verbosity='high' to print the bands.

     highest occupied level (ev):    -2.6199

!    total energy              =    -276.01118899 Ry
     estimated scf accuracy    <       0.00000002 Ry

     The total energy is the sum of the following terms:
     one-electron contribution =    -220.08288785 Ry
     hartree contribution      =     132.35850630 Ry
     xc contribution           =     -68.01119381 Ry
     ewald contribution        =    -120.27561364 Ry

     convergence has been achieved in   7 iterations

     Forces acting on atoms (cartesian axes, Ry/au):

     atom    1 type  2   force =     0.00000000   -0.00610894   -0.01202351
     atom    2 type  2   force =     0.00000000    0.00610829   -0.01202197
     atom    3 type  2   force =     0.00000000   -0.00610852   -0.01202267
     atom    4 type  2   force =     0.00000000    0.00610878   -0.01202267
     atom    5 type  2   force =     0.00000000    0.02482510   -0.01037762
     atom    6 type  2   force =     0.00000000   -0.02482530   -0.01037774
     atom    7 type  2   force =     0.00000000    0.02482486   -0.01037757
     atom    8 type  2   force =     0.00000000   -0.02482468   -0.01037726
     atom    9 type  1   force =     0.00000000    0.00123304    0.01015570
     atom   10 type  1   force =     0.00000000   -0.00123294    0.01015433
     atom   11 type  1   force =     0.00000000    0.00123297    0.01015496
     atom   12 type  1   force =     0.00000000   -0.00123303    0.01015500
     atom   13 type  1   force =     0.00000000    0.00732607   -0.00123188
     atom   14 type  1   force =     0.00000000   -0.00732571   -0.00123196
     atom   15 type  1   force =     0.00000000    0.00732579   -0.00123196
     atom   16 type  1   force =     0.00000000   -0.00732593   -0.00123197
     atom   17 type  1   force =     0.01004673   -0.01388537    0.00673866
     atom   18 type  1   force =    -0.01004685    0.01388551    0.00673874
     atom   19 type  1   force =     0.01004685    0.01388551    0.00673874
     atom   20 type  1   force =    -0.01004673   -0.01388537    0.00673866
     atom   21 type  1   force =     0.01004642   -0.01388520    0.00673856
     atom   22 type  1   force =    -0.01004634    0.01388513    0.00673845
     atom   23 type  1   force =     0.01004634    0.01388513    0.00673845
     atom   24 type  1   force =    -0.01004642   -0.01388520    0.00673856

     Total force =     0.083521     Total SCF correction =     0.000423


     Computing stress (Cartesian axis) and pressure

          total   stress  (Ry/bohr**3)                   (kbar)     P=       26.67
   0.00020120   0.00000000   0.00000000           29.60        0.00        0.00
   0.00000000   0.00011997  -0.00000000            0.00       17.65       -0.00
   0.00000000  -0.00000000   0.00022272            0.00       -0.00       32.76

     Energy error            =      1.5E-02 Ry
     Gradient error          =      2.5E-02 Ry/Bohr

     number of scf cycles    =   4
     number of bfgs steps    =   3

     energy             old  =    -275.9960064516 Ry
     energy             new  =    -276.0111889940 Ry

     CASE: energy            _new < energy            _old

     new trust radius        =       0.0241554708 bohr
     new conv_thr            =       0.0000001000 Ry


ATOMIC_POSITIONS (crystal)
O                0.0000000000        0.6666761323        0.0581539670
O                0.0000000000        0.3333239526        0.5581541049
O                0.5000000000        0.1666760606        0.0581540409
O                0.5000000000        0.8333238758        0.5581540064
O                0.5000000000        0.8342564161        0.9322666304
O                0.5000000000        0.1657435654        0.4322666717
O                0.0000000000        0.3342563942        0.9322668261
O                0.0000000000        0.6657436357        0.4322666845
H                0.0000000000        0.6649466538        0.2043259849
H                0.0000000000        0.3350534083        0.7043260806
H                0.5000000000        0.1649466004        0.2043260403
H                0.5000000000        0.8350533537        0.7043260060
H                0.0000000000        0.5352341541        0.0150281971
H                0.0000000000        0.4647659505        0.5150282122
H                0.5000000000        0.0352340813        0.0150281900
H                0.5000000000        0.9647658458        0.5150281903
H                0.6923034011        0.7694252360        0.9841124871
H                0.3076966014        0.2305747577        0.4841125103
H                0.6923033986        0.2305747577        0.4841125103
H                0.3076965989        0.7694252360        0.9841124871
H                0.1923034347        0.2694251727        0.9841125822
H                0.8076965871        0.7305747935        0.4841125368
H                0.1923034129        0.7305747935        0.4841125368
H                0.8076965653        0.2694251727        0.9841125822



     Writing config-only to output data dir ./iceIh/iceIh.save/ :
     XML data file
     NEW-OLD atomic charge density approx. for the potential

     total cpu time spent up to now is      426.2 secs

     per-process dynamical memory:    58.0 Mb

     Self-consistent Calculation

     iteration #  1     ecut=    90.00 Ry     beta= 0.70
     Davidson diagonalization with overlap
     ethr =  1.00E-06,  avg # of iterations =  4.9

     total cpu time spent up to now is      441.0 secs

     total energy              =    -276.01366127 Ry
     estimated scf accuracy    <       0.00118774 Ry

     iteration #  2     ecut=    90.00 Ry     beta= 0.70
     Davidson diagonalization with overlap
     ethr =  1.86E-06,  avg # of iterations =  3.0

     total cpu time spent up to now is      451.1 secs

     total energy              =    -276.01394218 Ry
     estimated scf accuracy    <       0.00034208 Ry

     iteration #  3     ecut=    90.00 Ry     beta= 0.70
     Davidson diagonalization with overlap
     ethr =  5.34E-07,  avg # of iterations =  2.2

     total cpu time spent up to now is      460.0 secs

     total energy              =    -276.01401129 Ry
     estimated scf accuracy    <       0.00001234 Ry

     iteration #  4     ecut=    90.00 Ry     beta= 0.70
     Davidson diagonalization with overlap
     ethr =  1.93E-08,  avg # of iterations =  3.0

     total cpu time spent up to now is      470.8 secs

     total energy              =    -276.01401561 Ry
     estimated scf accuracy    <       0.00000598 Ry

     iteration #  5     ecut=    90.00 Ry     beta= 0.70
     Davidson diagonalization with overlap
     ethr =  9.34E-09,  avg # of iterations =  2.0

     total cpu time spent up to now is      479.2 secs

     total energy              =    -276.01401626 Ry
     estimated scf accuracy    <       0.00000069 Ry

     iteration #  6     ecut=    90.00 Ry     beta= 0.70
     Davidson diagonalization with overlap
     ethr =  1.07E-09,  avg # of iterations =  3.2

     total cpu time spent up to now is      490.1 secs

     total energy              =    -276.01401647 Ry
     estimated scf accuracy    <       0.00000033 Ry

     iteration #  7     ecut=    90.00 Ry     beta= 0.70
     Davidson diagonalization with overlap
     ethr =  5.09E-10,  avg # of iterations =  2.0

     total cpu time spent up to now is      499.1 secs

     End of self-consistent calculation

     Number of k-points >= 100: set verbosity='high' to print the bands.

     highest occupied level (ev):    -2.6035

!    total energy              =    -276.01401654 Ry
     estimated scf accuracy    <          3.5E-09 Ry

     The total energy is the sum of the following terms:
     one-electron contribution =    -219.08229506 Ry
     hartree contribution      =     131.90924974 Ry
     xc contribution           =     -67.91112482 Ry
     ewald contribution        =    -120.92984640 Ry

     convergence has been achieved in   7 iterations

     Forces acting on atoms (cartesian axes, Ry/au):

     atom    1 type  2   force =     0.00000000   -0.00052962    0.00160680
     atom    2 type  2   force =     0.00000000    0.00052996    0.00160610
     atom    3 type  2   force =     0.00000000   -0.00052982    0.00160641
     atom    4 type  2   force =     0.00000000    0.00052972    0.00160648
     atom    5 type  2   force =     0.00000000    0.00191027    0.00507008
     atom    6 type  2   force =     0.00000000   -0.00191022    0.00507009
     atom    7 type  2   force =     0.00000000    0.00191030    0.00506989
     atom    8 type  2   force =     0.00000000   -0.00191045    0.00506993
     atom    9 type  1   force =     0.00000000    0.00188738    0.00019324
     atom   10 type  1   force =     0.00000000   -0.00188727    0.00019355
     atom   11 type  1   force =     0.00000000    0.00188730    0.00019339
     atom   12 type  1   force =     0.00000000   -0.00188733    0.00019344
     atom   13 type  1   force =     0.00000000    0.00324254   -0.00373073
     atom   14 type  1   force =     0.00000000   -0.00324304   -0.00373049
     atom   15 type  1   force =     0.00000000    0.00324281   -0.00373062
     atom   16 type  1   force =     0.00000000   -0.00324268   -0.00373069
     atom   17 type  1   force =    -0.00294147   -0.00333645   -0.00156964
     atom   18 type  1   force =     0.00294151    0.00333645   -0.00156959
     atom   19 type  1   force =    -0.00294151    0.00333645   -0.00156959
     atom   20 type  1   force =     0.00294147   -0.00333645   -0.00156964
     atom   21 type  1   force =    -0.00294155   -0.00333642   -0.00156958
     atom   22 type  1   force =     0.00294145    0.00333648   -0.00156962
     atom   23 type  1   force =    -0.00294145    0.00333648   -0.00156962
     atom   24 type  1   force =     0.00294155   -0.00333642   -0.00156958

     Total force =     0.020469     Total SCF correction =     0.000139


     Computing stress (Cartesian axis) and pressure

          total   stress  (Ry/bohr**3)                   (kbar)     P=       13.73
   0.00005918   0.00000000   0.00000000            8.71        0.00        0.00
   0.00000000   0.00009534   0.00000000            0.00       14.03        0.00
   0.00000000   0.00000000   0.00012554            0.00        0.00       18.47

     Energy error            =      2.8E-03 Ry
     Gradient error          =      5.1E-03 Ry/Bohr

     number of scf cycles    =   5
     number of bfgs steps    =   4

     energy             old  =    -276.0111889940 Ry
     energy             new  =    -276.0140165401 Ry

     CASE: energy            _new < energy            _old

     new trust radius        =       0.0059402400 bohr
     new conv_thr            =       0.0000000283 Ry


ATOMIC_POSITIONS (crystal)
O                0.0000000000        0.6666412697        0.0582736167
O                0.0000000000        0.3333588316        0.5582737112
O                0.5000000000        0.1666411888        0.0582736668
O                0.5000000000        0.8333587431        0.5582736372
O                0.5000000000        0.8344601700        0.9326632490
O                0.5000000000        0.1655398149        0.4326632905
O                0.0000000000        0.3344601488        0.9326634291
O                0.0000000000        0.6655398709        0.4326632933
H                0.0000000000        0.6651003621        0.2043708329
H                0.0000000000        0.3348997092        0.7043709433
H                0.5000000000        0.1651003020        0.2043708946
H                0.5000000000        0.8348996489        0.7043708646
H                0.0000000000        0.5354812535        0.0147057741
H                0.0000000000        0.4645188205        0.5147058067
H                0.5000000000        0.0354811966        0.0147057746
H                0.5000000000        0.9645187385        0.5147057696
H                0.6919724217        0.7691346893        0.9839931446
H                0.3080275847        0.2308653056        0.4839931719
H                0.6919724153        0.2308653056        0.4839931719
H                0.3080275783        0.7691346893        0.9839931446
H                0.1919724418        0.2691346287        0.9839932441
H                0.8080275676        0.7308653418        0.4839931953
H                0.1919724324        0.7308653418        0.4839931953
H                0.8080275582        0.2691346287        0.9839932441



     Writing config-only to output data dir ./iceIh/iceIh.save/ :
     XML data file
     NEW-OLD atomic charge density approx. for the potential

     total cpu time spent up to now is      507.4 secs

     per-process dynamical memory:    58.0 Mb

     Self-consistent Calculation

     iteration #  1     ecut=    90.00 Ry     beta= 0.70
     Davidson diagonalization with overlap
     ethr =  1.00E-06,  avg # of iterations =  3.0

     Threshold (ethr) on eigenvalues was too large:
     Diagonalizing with lowered threshold

     Davidson diagonalization with overlap
     ethr =  3.45E-08,  avg # of iterations =  2.1

     total cpu time spent up to now is      525.5 secs

     total energy              =    -276.01440296 Ry
     estimated scf accuracy    <       0.00002502 Ry

     iteration #  2     ecut=    90.00 Ry     beta= 0.70
     Davidson diagonalization with overlap
     ethr =  3.91E-08,  avg # of iterations =  2.0

     total cpu time spent up to now is      534.2 secs

     total energy              =    -276.01440716 Ry
     estimated scf accuracy    <       0.00000173 Ry

     iteration #  3     ecut=    90.00 Ry     beta= 0.70
     Davidson diagonalization with overlap
     ethr =  2.71E-09,  avg # of iterations =  2.0

     total cpu time spent up to now is      543.0 secs

     total energy              =    -276.01440758 Ry
     estimated scf accuracy    <       0.00000018 Ry

     iteration #  4     ecut=    90.00 Ry     beta= 0.70
     Davidson diagonalization with overlap
     ethr =  2.82E-10,  avg # of iterations =  2.0

     total cpu time spent up to now is      550.6 secs

     End of self-consistent calculation

     Number of k-points >= 100: set verbosity='high' to print the bands.

     highest occupied level (ev):    -2.6084

!    total energy              =    -276.01440761 Ry
     estimated scf accuracy    <       0.00000001 Ry

     The total energy is the sum of the following terms:
     one-electron contribution =    -219.16238471 Ry
     hartree contribution      =     131.94537340 Ry
     xc contribution           =     -67.91872776 Ry
     ewald contribution        =    -120.87866855 Ry

     convergence has been achieved in   4 iterations

     Forces acting on atoms (cartesian axes, Ry/au):

     atom    1 type  2   force =     0.00000000    0.00135157    0.00084588
     atom    2 type  2   force =     0.00000000   -0.00135179    0.00084599
     atom    3 type  2   force =     0.00000000    0.00135168    0.00084593
     atom    4 type  2   force =     0.00000000   -0.00135163    0.00084594
     atom    5 type  2   force =     0.00000000    0.00126890    0.00375894
     atom    6 type  2   force =     0.00000000   -0.00126888    0.00375895
     atom    7 type  2   force =     0.00000000    0.00126894    0.00375877
     atom    8 type  2   force =     0.00000000   -0.00126893    0.00375890
     atom    9 type  1   force =     0.00000000    0.00106739    0.00040913
     atom   10 type  1   force =     0.00000000   -0.00106732    0.00040893
     atom   11 type  1   force =     0.00000000    0.00106733    0.00040901
     atom   12 type  1   force =     0.00000000   -0.00106736    0.00040906
     atom   13 type  1   force =     0.00000000    0.00171235   -0.00290751
     atom   14 type  1   force =     0.00000000   -0.00171232   -0.00290749
     atom   15 type  1   force =     0.00000000    0.00171232   -0.00290752
     atom   16 type  1   force =     0.00000000   -0.00171232   -0.00290754
     atom   17 type  1   force =    -0.00193188   -0.00292590   -0.00105318
     atom   18 type  1   force =     0.00193190    0.00292592   -0.00105315
     atom   19 type  1   force =    -0.00193190    0.00292592   -0.00105315
     atom   20 type  1   force =     0.00193188   -0.00292590   -0.00105318
     atom   21 type  1   force =    -0.00193192   -0.00292587   -0.00105315
     atom   22 type  1   force =     0.00193192    0.00292588   -0.00105321
     atom   23 type  1   force =    -0.00193192    0.00292588   -0.00105321
     atom   24 type  1   force =     0.00193192   -0.00292587   -0.00105315

     Total force =     0.015202     Total SCF correction =     0.000176


     Computing stress (Cartesian axis) and pressure

          total   stress  (Ry/bohr**3)                   (kbar)     P=       14.68
   0.00006718   0.00000000   0.00000000            9.88        0.00        0.00
   0.00000000   0.00010615  -0.00000000            0.00       15.62       -0.00
   0.00000000  -0.00000000   0.00012610            0.00       -0.00       18.55

     Energy error            =      3.9E-04 Ry
     Gradient error          =      3.8E-03 Ry/Bohr

     number of scf cycles    =   6
     number of bfgs steps    =   5

     energy             old  =    -276.0140165401 Ry
     energy             new  =    -276.0144076108 Ry

     CASE: energy            _new < energy            _old

     new trust radius        =       0.0065342640 bohr
     new conv_thr            =       0.0000000039 Ry


ATOMIC_POSITIONS (crystal)
O                0.0000000000        0.6667359095        0.0583589279
O                0.0000000000        0.3332641690        0.5583590338
O                0.5000000000        0.1667358408        0.0583589834
O                0.5000000000        0.8332640968        0.5583589553
O                0.5000000000        0.8346826212        0.9331005009
O                0.5000000000        0.1653173655        0.4331005430
O                0.0000000000        0.3346826038        0.9331006616
O                0.0000000000        0.6653174164        0.4331005413
H                0.0000000000        0.6652419131        0.2044503074
H                0.0000000000        0.3347581674        0.7044503944
H                0.5000000000        0.1652418456        0.2044503550
H                0.5000000000        0.8347581017        0.7044503305
H                0.0000000000        0.5357144414        0.0143391479
H                0.0000000000        0.4642856341        0.5143391851
H                0.5000000000        0.0357143823        0.0143391486
H                0.5000000000        0.9642855531        0.5143391408
H                0.6916493528        0.7687673423        0.9838754433
H                0.3083506568        0.2312326553        0.4838754745
H                0.6916493432        0.2312326553        0.4838754745
H                0.3083506472        0.7687673423        0.9838754433
H                0.1916493609        0.2687672852        0.9838755463
H                0.8083506463        0.7312326864        0.4838754905
H                0.1916493537        0.7312326864        0.4838754905
H                0.8083506391        0.2687672852        0.9838755463



     Writing config-only to output data dir ./iceIh/iceIh.save/ :
     XML data file
     NEW-OLD atomic charge density approx. for the potential

     total cpu time spent up to now is      558.9 secs

     per-process dynamical memory:    58.0 Mb

     Self-consistent Calculation

     iteration #  1     ecut=    90.00 Ry     beta= 0.70
     Davidson diagonalization with overlap
     ethr =  1.00E-06,  avg # of iterations =  3.0

     Threshold (ethr) on eigenvalues was too large:
     Diagonalizing with lowered threshold

     Davidson diagonalization with overlap
     ethr =  3.85E-08,  avg # of iterations =  2.2

     total cpu time spent up to now is      576.9 secs

     total energy              =    -276.01471571 Ry
     estimated scf accuracy    <       0.00002804 Ry

     iteration #  2     ecut=    90.00 Ry     beta= 0.70
     Davidson diagonalization with overlap
     ethr =  4.38E-08,  avg # of iterations =  2.0

     total cpu time spent up to now is      584.6 secs

     total energy              =    -276.01471971 Ry
     estimated scf accuracy    <       0.00000108 Ry

     iteration #  3     ecut=    90.00 Ry     beta= 0.70
     Davidson diagonalization with overlap
     ethr =  1.69E-09,  avg # of iterations =  2.8

     total cpu time spent up to now is      594.1 secs

     total energy              =    -276.01471998 Ry
     estimated scf accuracy    <       0.00000018 Ry

     iteration #  4     ecut=    90.00 Ry     beta= 0.70
     Davidson diagonalization with overlap
     ethr =  2.81E-10,  avg # of iterations =  3.0

     total cpu time spent up to now is      603.7 secs

     total energy              =    -276.01472003 Ry
     estimated scf accuracy    <       0.00000003 Ry

     iteration #  5     ecut=    90.00 Ry     beta= 0.70
     Davidson diagonalization with overlap
     ethr =  4.77E-11,  avg # of iterations =  2.5

     total cpu time spent up to now is      612.6 secs

     End of self-consistent calculation

     Number of k-points >= 100: set verbosity='high' to print the bands.

     highest occupied level (ev):    -2.6118

!    total energy              =    -276.01472003 Ry
     estimated scf accuracy    <          2.4E-09 Ry

     The total energy is the sum of the following terms:
     one-electron contribution =    -219.18854843 Ry
     hartree contribution      =     131.95666224 Ry
     xc contribution           =     -67.92082799 Ry
     ewald contribution        =    -120.86200585 Ry

     convergence has been achieved in   5 iterations

     Forces acting on atoms (cartesian axes, Ry/au):

     atom    1 type  2   force =     0.00000000    0.00172014    0.00036144
     atom    2 type  2   force =     0.00000000   -0.00172005    0.00036117
     atom    3 type  2   force =     0.00000000    0.00172008    0.00036130
     atom    4 type  2   force =     0.00000000   -0.00172009    0.00036132
     atom    5 type  2   force =     0.00000000    0.00038272    0.00253385
     atom    6 type  2   force =     0.00000000   -0.00038268    0.00253386
     atom    7 type  2   force =     0.00000000    0.00038269    0.00253377
     atom    8 type  2   force =     0.00000000   -0.00038278    0.00253380
     atom    9 type  1   force =     0.00000000    0.00042281    0.00012489
     atom   10 type  1   force =     0.00000000   -0.00042279    0.00012500
     atom   11 type  1   force =     0.00000000    0.00042278    0.00012494
     atom   12 type  1   force =     0.00000000   -0.00042279    0.00012495
     atom   13 type  1   force =     0.00000000    0.00124518   -0.00181605
     atom   14 type  1   force =     0.00000000   -0.00124537   -0.00181599
     atom   15 type  1   force =     0.00000000    0.00124528   -0.00181603
     atom   16 type  1   force =     0.00000000   -0.00124524   -0.00181604
     atom   17 type  1   force =    -0.00100898   -0.00224176   -0.00060203
     atom   18 type  1   force =     0.00100900    0.00224177   -0.00060200
     atom   19 type  1   force =    -0.00100900    0.00224177   -0.00060200
     atom   20 type  1   force =     0.00100898   -0.00224176   -0.00060203
     atom   21 type  1   force =    -0.00100903   -0.00224170   -0.00060203
     atom   22 type  1   force =     0.00100897    0.00224176   -0.00060204
     atom   23 type  1   force =    -0.00100897    0.00224176   -0.00060204
     atom   24 type  1   force =     0.00100903   -0.00224170   -0.00060203

     Total force =     0.010490     Total SCF correction =     0.000104


     Computing stress (Cartesian axis) and pressure

          total   stress  (Ry/bohr**3)                   (kbar)     P=       14.87
   0.00007400   0.00000000   0.00000000           10.89        0.00        0.00
   0.00000000   0.00010810   0.00000000            0.00       15.90        0.00
   0.00000000   0.00000000   0.00012111            0.00        0.00       17.82

     Energy error            =      3.1E-04 Ry
     Gradient error          =      2.5E-03 Ry/Bohr

     number of scf cycles    =   7
     number of bfgs steps    =   6

     energy             old  =    -276.0144076108 Ry
     energy             new  =    -276.0147200341 Ry

     CASE: energy            _new < energy            _old

     new trust radius        =       0.0098013960 bohr
     new conv_thr            =       0.0000000031 Ry


ATOMIC_POSITIONS (crystal)
O                0.0000000000        0.6669836276        0.0584553024
O                0.0000000000        0.3330164589        0.5584553594
O                0.5000000000        0.1669835533        0.0584553322
O                0.5000000000        0.8330163841        0.5584553100
O                0.5000000000        0.8349604482        0.9337852267
O                0.5000000000        0.1650395444        0.4337852703
O                0.0000000000        0.3349604271        0.9337853627
O                0.0000000000        0.6650395757        0.4337852551
H                0.0000000000        0.6654203755        0.2045474979
H                0.0000000000        0.3345797152        0.7045475949
H                0.5000000000        0.1654202978        0.2045475478
H                0.5000000000        0.8345796454        0.7045475289
H                0.0000000000        0.5361110632        0.0137928729
H                0.0000000000        0.4638889762        0.5137929274
H                0.5000000000        0.0361110227        0.0137928794
H                0.5000000000        0.9638889215        0.5137928671
H                0.6912196105        0.7681527040        0.9837094445
H                0.3087804050        0.2318472963        0.4837094834
H                0.6912195950        0.2318472963        0.4837094834
H                0.3087803895        0.7681527040        0.9837094445
H                0.1912195950        0.2681526586        0.9837095494
H                0.8087803934        0.7318473227        0.4837094882
H                0.1912196066        0.7318473227        0.4837094882
H                0.8087804050        0.2681526586        0.9837095494



     Writing config-only to output data dir ./iceIh/iceIh.save/ :
     XML data file
     NEW-OLD atomic charge density approx. for the potential

     total cpu time spent up to now is      620.9 secs

     per-process dynamical memory:    58.0 Mb

     Self-consistent Calculation

     iteration #  1     ecut=    90.00 Ry     beta= 0.70
     Davidson diagonalization with overlap
     ethr =  1.00E-06,  avg # of iterations =  3.3

     Threshold (ethr) on eigenvalues was too large:
     Diagonalizing with lowered threshold

     Davidson diagonalization with overlap
     ethr =  9.95E-08,  avg # of iterations =  2.0

     total cpu time spent up to now is      640.1 secs

     total energy              =    -276.01497100 Ry
     estimated scf accuracy    <       0.00007099 Ry

     iteration #  2     ecut=    90.00 Ry     beta= 0.70
     Davidson diagonalization with overlap
     ethr =  1.11E-07,  avg # of iterations =  2.0

     total cpu time spent up to now is      648.0 secs

     total energy              =    -276.01498105 Ry
     estimated scf accuracy    <       0.00000388 Ry

     iteration #  3     ecut=    90.00 Ry     beta= 0.70
     Davidson diagonalization with overlap
     ethr =  6.06E-09,  avg # of iterations =  3.0

     total cpu time spent up to now is      657.8 secs

     total energy              =    -276.01498196 Ry
     estimated scf accuracy    <       0.00000164 Ry

     iteration #  4     ecut=    90.00 Ry     beta= 0.70
     Davidson diagonalization with overlap
     ethr =  2.56E-09,  avg # of iterations =  3.0

     total cpu time spent up to now is      666.6 secs

     total energy              =    -276.01498232 Ry
     estimated scf accuracy    <       0.00000007 Ry

     iteration #  5     ecut=    90.00 Ry     beta= 0.70
     Davidson diagonalization with overlap
     ethr =  1.10E-10,  avg # of iterations =  3.0

     total cpu time spent up to now is      676.3 secs

     total energy              =    -276.01498233 Ry
     estimated scf accuracy    <       0.00000002 Ry

     iteration #  6     ecut=    90.00 Ry     beta= 0.70
     Davidson diagonalization with overlap
     ethr =  3.19E-11,  avg # of iterations =  2.8

     total cpu time spent up to now is      684.8 secs

     End of self-consistent calculation

     Number of k-points >= 100: set verbosity='high' to print the bands.

     highest occupied level (ev):    -2.6168

!    total energy              =    -276.01498233 Ry
     estimated scf accuracy    <          7.4E-10 Ry

     The total energy is the sum of the following terms:
     one-electron contribution =    -219.20402542 Ry
     hartree contribution      =     131.96399782 Ry
     xc contribution           =     -67.92194775 Ry
     ewald contribution        =    -120.85300699 Ry

     convergence has been achieved in   6 iterations

     Forces acting on atoms (cartesian axes, Ry/au):

     atom    1 type  2   force =     0.00000000    0.00145474   -0.00027857
     atom    2 type  2   force =     0.00000000   -0.00145518   -0.00027801
     atom    3 type  2   force =     0.00000000    0.00145499   -0.00027827
     atom    4 type  2   force =     0.00000000   -0.00145489   -0.00027832
     atom    5 type  2   force =     0.00000000   -0.00094177    0.00082198
     atom    6 type  2   force =     0.00000000    0.00094176    0.00082199
     atom    7 type  2   force =     0.00000000   -0.00094169    0.00082189
     atom    8 type  2   force =     0.00000000    0.00094182    0.00082202
     atom    9 type  1   force =     0.00000000   -0.00030431   -0.00030707
     atom   10 type  1   force =     0.00000000    0.00030428   -0.00030746
     atom   11 type  1   force =     0.00000000   -0.00030431   -0.00030727
     atom   12 type  1   force =     0.00000000    0.00030432   -0.00030726
     atom   13 type  1   force =     0.00000000    0.00092705   -0.00021333
     atom   14 type  1   force =     0.00000000   -0.00092671   -0.00021350
     atom   15 type  1   force =     0.00000000    0.00092686   -0.00021343
     atom   16 type  1   force =     0.00000000   -0.00092691   -0.00021339
     atom   17 type  1   force =     0.00015002   -0.00103992   -0.00001149
     atom   18 type  1   force =    -0.00015003    0.00103994   -0.00001148
     atom   19 type  1   force =     0.00015003    0.00103994   -0.00001148
     atom   20 type  1   force =    -0.00015002   -0.00103992   -0.00001149
     atom   21 type  1   force =     0.00015008   -0.00103992   -0.00001149
     atom   22 type  1   force =    -0.00014999    0.00103988   -0.00001154
     atom   23 type  1   force =     0.00014999    0.00103988   -0.00001154
     atom   24 type  1   force =    -0.00015008   -0.00103992   -0.00001149

     Total force =     0.005313     Total SCF correction =     0.000070


     Computing stress (Cartesian axis) and pressure

          total   stress  (Ry/bohr**3)                   (kbar)     P=       15.05
   0.00008538   0.00000000   0.00000000           12.56        0.00        0.00
   0.00000000   0.00010831  -0.00000000            0.00       15.93       -0.00
   0.00000000  -0.00000000   0.00011332            0.00       -0.00       16.67

     Energy error            =      2.6E-04 Ry
     Gradient error          =      1.5E-03 Ry/Bohr

     number of scf cycles    =   8
     number of bfgs steps    =   7

     energy             old  =    -276.0147200341 Ry
     energy             new  =    -276.0149823328 Ry

     CASE: energy            _new < energy            _old

     new trust radius        =       0.0049342527 bohr
     new conv_thr            =       0.0000000026 Ry


ATOMIC_POSITIONS (crystal)
O                0.0000000000        0.6671824454        0.0584627282
O                0.0000000000        0.3328175984        0.5584628294
O                0.5000000000        0.1671823949        0.0584627812
O                0.5000000000        0.8328175522        0.5584627567
O                0.5000000000        0.8349934169        0.9341322330
O                0.5000000000        0.1650065764        0.4341322779
O                0.0000000000        0.3349934038        0.9341323487
O                0.0000000000        0.6650066072        0.4341322616
H                0.0000000000        0.6654686785        0.2045569986
H                0.0000000000        0.3345314131        0.7045570554
H                0.5000000000        0.1654685966        0.2045570271
H                0.5000000000        0.8345313454        0.7045570115
H                0.0000000000        0.5363726550        0.0135591274
H                0.0000000000        0.4636274062        0.5135591703
H                0.5000000000        0.0363726016        0.0135591258
H                0.5000000000        0.9636273404        0.5135591154
H                0.6910801524        0.7678146683        0.9836443560
H                0.3089198632        0.2321853351        0.4836443984
H                0.6910801368        0.2321853351        0.4836443984
H                0.3089198476        0.7678146683        0.9836443560
H                0.1910801384        0.2678146275        0.9836444614
H                0.8089198594        0.7321853531        0.4836443930
H                0.1910801406        0.7321853531        0.4836443930
H                0.8089198616        0.2678146275        0.9836444614



     Writing config-only to output data dir ./iceIh/iceIh.save/ :
     XML data file
     NEW-OLD atomic charge density approx. for the potential

     total cpu time spent up to now is      693.1 secs

     per-process dynamical memory:    58.0 Mb

     Self-consistent Calculation

     iteration #  1     ecut=    90.00 Ry     beta= 0.70
     Davidson diagonalization with overlap
     ethr =  1.00E-06,  avg # of iterations =  3.0

     Threshold (ethr) on eigenvalues was too large:
     Diagonalizing with lowered threshold

     Davidson diagonalization with overlap
     ethr =  2.84E-08,  avg # of iterations =  2.6

     total cpu time spent up to now is      711.9 secs

     total energy              =    -276.01502987 Ry
     estimated scf accuracy    <       0.00002186 Ry

     iteration #  2     ecut=    90.00 Ry     beta= 0.70
     Davidson diagonalization with overlap
     ethr =  3.42E-08,  avg # of iterations =  2.0

     total cpu time spent up to now is      720.5 secs

     total energy              =    -276.01503317 Ry
     estimated scf accuracy    <       0.00000404 Ry

     iteration #  3     ecut=    90.00 Ry     beta= 0.70
     Davidson diagonalization with overlap
     ethr =  6.31E-09,  avg # of iterations =  3.0

     total cpu time spent up to now is      730.1 secs

     total energy              =    -276.01503434 Ry
     estimated scf accuracy    <       0.00000063 Ry

     iteration #  4     ecut=    90.00 Ry     beta= 0.70
     Davidson diagonalization with overlap
     ethr =  9.81E-10,  avg # of iterations =  2.2

     total cpu time spent up to now is      737.5 secs

     total energy              =    -276.01503440 Ry
     estimated scf accuracy    <       0.00000004 Ry

     iteration #  5     ecut=    90.00 Ry     beta= 0.70
     Davidson diagonalization with overlap
     ethr =  6.56E-11,  avg # of iterations =  4.7

     total cpu time spent up to now is      749.9 secs

     total energy              =    -276.01503441 Ry
     estimated scf accuracy    <       0.00000006 Ry

     iteration #  6     ecut=    90.00 Ry     beta= 0.70
     Davidson diagonalization with overlap
     ethr =  6.56E-11,  avg # of iterations =  3.0

     total cpu time spent up to now is      759.8 secs

     End of self-consistent calculation

     Number of k-points >= 100: set verbosity='high' to print the bands.

     highest occupied level (ev):    -2.6196

!    total energy              =    -276.01503442 Ry
     estimated scf accuracy    <          1.6E-10 Ry

     The total energy is the sum of the following terms:
     one-electron contribution =    -219.20906714 Ry
     hartree contribution      =     131.96626371 Ry
     xc contribution           =     -67.92229582 Ry
     ewald contribution        =    -120.84993517 Ry

     convergence has been achieved in   6 iterations

     Forces acting on atoms (cartesian axes, Ry/au):

     atom    1 type  2   force =     0.00000000    0.00091836   -0.00037295
     atom    2 type  2   force =     0.00000000   -0.00091800   -0.00037347
     atom    3 type  2   force =     0.00000000    0.00091815   -0.00037321
     atom    4 type  2   force =     0.00000000   -0.00091820   -0.00037319
     atom    5 type  2   force =     0.00000000   -0.00126088   -0.00010726
     atom    6 type  2   force =     0.00000000    0.00126090   -0.00010726
     atom    7 type  2   force =     0.00000000   -0.00126094   -0.00010723
     atom    8 type  2   force =     0.00000000    0.00126081   -0.00010732
     atom    9 type  1   force =     0.00000000   -0.00041017   -0.00041624
     atom   10 type  1   force =     0.00000000    0.00041011   -0.00041589
     atom   11 type  1   force =     0.00000000   -0.00041015   -0.00041606
     atom   12 type  1   force =     0.00000000    0.00041017   -0.00041609
     atom   13 type  1   force =     0.00000000    0.00072421    0.00036093
     atom   14 type  1   force =     0.00000000   -0.00072454    0.00036099
     atom   15 type  1   force =     0.00000000    0.00072440    0.00036096
     atom   16 type  1   force =     0.00000000   -0.00072434    0.00036097
     atom   17 type  1   force =     0.00055364   -0.00047331    0.00026779
     atom   18 type  1   force =    -0.00055364    0.00047330    0.00026781
     atom   19 type  1   force =     0.00055364    0.00047330    0.00026781
     atom   20 type  1   force =    -0.00055364   -0.00047331    0.00026779
     atom   21 type  1   force =     0.00055362   -0.00047324    0.00026775
     atom   22 type  1   force =    -0.00055369    0.00047331    0.00026779
     atom   23 type  1   force =     0.00055369    0.00047331    0.00026779
     atom   24 type  1   force =    -0.00055362   -0.00047324    0.00026775

     Total force =     0.004375     Total SCF correction =     0.000038


     Computing stress (Cartesian axis) and pressure

          total   stress  (Ry/bohr**3)                   (kbar)     P=       15.12
   0.00009184   0.00000000   0.00000000           13.51        0.00        0.00
   0.00000000   0.00010749   0.00000000            0.00       15.81        0.00
   0.00000000   0.00000000   0.00010892            0.00        0.00       16.02

     Energy error            =      5.2E-05 Ry
     Gradient error          =      1.3E-03 Ry/Bohr

     number of scf cycles    =   9
     number of bfgs steps    =   8

     energy             old  =    -276.0149823328 Ry
     energy             new  =    -276.0150344227 Ry

     CASE: energy            _new < energy            _old

     new trust radius        =       0.0024696375 bohr
     new conv_thr            =       0.0000000010 Ry


ATOMIC_POSITIONS (crystal)
O                0.0000000000        0.6673214594        0.0584354909
O                0.0000000000        0.3326786097        0.5584355454
O                0.5000000000        0.1673213940        0.0584355206
O                0.5000000000        0.8326785500        0.5584354980
O                0.5000000000        0.8348986285        0.9342549901
O                0.5000000000        0.1651013676        0.4342550358
O                0.0000000000        0.3348986114        0.9342551023
O                0.0000000000        0.6651013882        0.4342550119
H                0.0000000000        0.6654561884        0.2045207769
H                0.0000000000        0.3345438981        0.7045208607
H                0.5000000000        0.1654561068        0.2045208198
H                0.5000000000        0.8345438365        0.7045208020
H                0.0000000000        0.5365409823        0.0135023862
H                0.0000000000        0.4634590493        0.5135024338
H                0.5000000000        0.0365409456        0.0135023865
H                0.5000000000        0.9634590033        0.5135023771
H                0.6911020170        0.7676480190        0.9836430830
H                0.3088979985        0.2323519841        0.4836431287
H                0.6911020015        0.2323519841        0.4836431287
H                0.3088979830        0.7676480190        0.9836430830
H                0.1911019999        0.2676479865        0.9836431842
H                0.8088979887        0.7323520009        0.4836431182
H                0.1911020113        0.7323520009        0.4836431182
H                0.8088980001        0.2676479865        0.9836431842



     Writing config-only to output data dir ./iceIh/iceIh.save/ :
     XML data file
     NEW-OLD atomic charge density approx. for the potential

     total cpu time spent up to now is      768.0 secs

     per-process dynamical memory:    58.0 Mb

     Self-consistent Calculation

     iteration #  1     ecut=    90.00 Ry     beta= 0.70
     Davidson diagonalization with overlap
     ethr =  1.00E-06,  avg # of iterations =  2.0

     Threshold (ethr) on eigenvalues was too large:
     Diagonalizing with lowered threshold

     Davidson diagonalization with overlap
     ethr =  9.23E-09,  avg # of iterations =  3.0

     total cpu time spent up to now is      786.8 secs

     total energy              =    -276.01505556 Ry
     estimated scf accuracy    <       0.00000748 Ry

     iteration #  2     ecut=    90.00 Ry     beta= 0.70
     Davidson diagonalization with overlap
     ethr =  1.17E-08,  avg # of iterations =  3.0

     total cpu time spent up to now is      796.7 secs

     total energy              =    -276.01505675 Ry
     estimated scf accuracy    <       0.00000387 Ry

     iteration #  3     ecut=    90.00 Ry     beta= 0.70
     Davidson diagonalization with overlap
     ethr =  6.05E-09,  avg # of iterations =  3.0

     total cpu time spent up to now is      806.1 secs

     total energy              =    -276.01505772 Ry
     estimated scf accuracy    <       0.00000013 Ry

     iteration #  4     ecut=    90.00 Ry     beta= 0.70
     Davidson diagonalization with overlap
     ethr =  2.02E-10,  avg # of iterations =  3.2

     total cpu time spent up to now is      814.9 secs

     total energy              =    -276.01505773 Ry
     estimated scf accuracy    <       0.00000004 Ry

     iteration #  5     ecut=    90.00 Ry     beta= 0.70
     Davidson diagonalization with overlap
     ethr =  6.27E-11,  avg # of iterations =  4.2

     total cpu time spent up to now is      826.1 secs

     total energy              =    -276.01505775 Ry
     estimated scf accuracy    <       0.00000002 Ry

     iteration #  6     ecut=    90.00 Ry     beta= 0.70
     Davidson diagonalization with overlap
     ethr =  3.55E-11,  avg # of iterations =  2.8

     total cpu time spent up to now is      834.6 secs

     End of self-consistent calculation

     Number of k-points >= 100: set verbosity='high' to print the bands.

     highest occupied level (ev):    -2.6213

!    total energy              =    -276.01505775 Ry
     estimated scf accuracy    <          4.2E-11 Ry

     The total energy is the sum of the following terms:
     one-electron contribution =    -219.21163255 Ry
     hartree contribution      =     131.96738920 Ry
     xc contribution           =     -67.92254424 Ry
     ewald contribution        =    -120.84827016 Ry

     convergence has been achieved in   6 iterations

     Forces acting on atoms (cartesian axes, Ry/au):

     atom    1 type  2   force =     0.00000000    0.00047082   -0.00030904
     atom    2 type  2   force =     0.00000000   -0.00047114   -0.00030861
     atom    3 type  2   force =     0.00000000    0.00047101   -0.00030881
     atom    4 type  2   force =     0.00000000   -0.00047095   -0.00030885
     atom    5 type  2   force =     0.00000000   -0.00111375   -0.00045090
     atom    6 type  2   force =     0.00000000    0.00111375   -0.00045088
     atom    7 type  2   force =     0.00000000   -0.00111369   -0.00045094
     atom    8 type  2   force =     0.00000000    0.00111380   -0.00045086
     atom    9 type  1   force =     0.00000000   -0.00023561   -0.00024530
     atom   10 type  1   force =     0.00000000    0.00023556   -0.00024559
     atom   11 type  1   force =     0.00000000   -0.00023559   -0.00024544
     atom   12 type  1   force =     0.00000000    0.00023561   -0.00024545
     atom   13 type  1   force =     0.00000000    0.00049186    0.00035522
     atom   14 type  1   force =     0.00000000   -0.00049160    0.00035508
     atom   15 type  1   force =     0.00000000    0.00049171    0.00035515
     atom   16 type  1   force =     0.00000000   -0.00049174    0.00035518
     atom   17 type  1   force =     0.00049498   -0.00025666    0.00032502
     atom   18 type  1   force =    -0.00049499    0.00025667    0.00032502
     atom   19 type  1   force =     0.00049499    0.00025667    0.00032502
     atom   20 type  1   force =    -0.00049498   -0.00025666    0.00032502
     atom   21 type  1   force =     0.00049503   -0.00025665    0.00032500
     atom   22 type  1   force =    -0.00049496    0.00025662    0.00032498
     atom   23 type  1   force =     0.00049496    0.00025662    0.00032498
     atom   24 type  1   force =    -0.00049503   -0.00025665    0.00032500

     Total force =     0.003509     Total SCF correction =     0.000017


     Computing stress (Cartesian axis) and pressure

          total   stress  (Ry/bohr**3)                   (kbar)     P=       15.16
   0.00009477   0.00000000   0.00000000           13.94        0.00        0.00
   0.00000000   0.00010678  -0.00000000            0.00       15.71       -0.00
   0.00000000  -0.00000000   0.00010761            0.00       -0.00       15.83

     Energy error            =      2.3E-05 Ry
     Gradient error          =      1.1E-03 Ry/Bohr

[...]
     atom    7 type  2   force =     0.00000000   -0.00001706   -0.00005991
     atom    8 type  2   force =     0.00000000    0.00002355   -0.00005565
     atom    9 type  1   force =     0.00000000   -0.00014106    0.00004547
     atom   10 type  1   force =     0.00000000    0.00014150    0.00002757
     atom   11 type  1   force =     0.00000000   -0.00014143    0.00003699
     atom   12 type  1   force =     0.00000000    0.00014123    0.00003621
     atom   13 type  1   force =     0.00000000    0.00004184    0.00001194
     atom   14 type  1   force =     0.00000000   -0.00002492    0.00000615
     atom   15 type  1   force =     0.00000000    0.00003272    0.00000893
     atom   16 type  1   force =     0.00000000   -0.00003409    0.00000917
     atom   17 type  1   force =     0.00002266    0.00000971   -0.00000236
     atom   18 type  1   force =    -0.00002270   -0.00000929   -0.00000292
     atom   19 type  1   force =     0.00002270   -0.00000929   -0.00000292
     atom   20 type  1   force =    -0.00002266    0.00000971   -0.00000236
     atom   21 type  1   force =     0.00002451    0.00000826   -0.00000174
     atom   22 type  1   force =    -0.00002084   -0.00001079   -0.00000352
     atom   23 type  1   force =     0.00002084   -0.00001079   -0.00000352
     atom   24 type  1   force =    -0.00002451    0.00000826   -0.00000174

     Total force =     0.000336     Total SCF correction =     0.000043
     SCF correction compared to forces is large: reduce conv_thr to get better values


     Computing stress (Cartesian axis) and pressure

          total   stress  (Ry/bohr**3)                   (kbar)     P=       14.90
   0.00009974   0.00000000   0.00000000           14.67        0.00        0.00
   0.00000000   0.00010262  -0.00000001            0.00       15.10       -0.00
   0.00000000  -0.00000001   0.00010147            0.00       -0.00       14.93

     Energy error            =      3.4E-07 Ry
     Gradient error          =      1.4E-04 Ry/Bohr

     number of scf cycles    =  34
     number of bfgs steps    =  33

     energy             old  =    -276.0152503624 Ry
     energy             new  =    -276.0152506998 Ry

     CASE: energy            _new < energy            _old

     new trust radius        =       0.0009102473 bohr
     new conv_thr            =       0.0000000010 Ry


ATOMIC_POSITIONS (crystal)
O                0.0000000000        0.6618506985        0.0583239983
O                0.0000000000        0.3381470780        0.5583269489
O                0.5000000000        0.1618520221        0.0583254236
O                0.5000000000        0.8381483247        0.5583255813
O                0.5000000000        0.8286363301        0.9340315441
O                0.5000000000        0.1713636874        0.4340315201
O                0.0000000000        0.3286366039        0.9340310846
O                0.0000000000        0.6713640172        0.4340318745
H                0.0000000000        0.6633473107        0.2044173477
H                0.0000000000        0.3366526177        0.7044152729
H                0.5000000000        0.1633474991        0.2044163914
H                0.5000000000        0.8366526795        0.7044163037
H                0.0000000000        0.5305830874        0.0154970754
H                0.0000000000        0.4694186443        0.5154964478
H                0.5000000000        0.0305822207        0.0154968372
H                0.5000000000        0.9694177050        0.5154967962
H                0.6912818358        0.7611532875        0.9828650545
H                0.3087181600        0.2388467818        0.4828648822
H                0.6912818400        0.2388467818        0.4828648822
H                0.3087181642        0.7611532875        0.9828650545
H                0.1912821974        0.2611530725        0.9828649896
H                0.8087185188        0.7388465951        0.4828648829
H                0.1912814812        0.7388465951        0.4828648829
H                0.8087178026        0.2611530725        0.9828649896



     Writing config-only to output data dir ./iceIh/iceIh.save/ :
     XML data file
     NEW-OLD atomic charge density approx. for the potential

     total cpu time spent up to now is     2577.5 secs

     per-process dynamical memory:    58.8 Mb

     Self-consistent Calculation

     iteration #  1     ecut=    90.00 Ry     beta= 0.70
     Davidson diagonalization with overlap
     ethr =  1.00E-06,  avg # of iterations =  2.0

     Threshold (ethr) on eigenvalues was too large:
     Diagonalizing with lowered threshold

     Davidson diagonalization with overlap
     ethr =  4.99E-10,  avg # of iterations =  4.2

     total cpu time spent up to now is     2598.7 secs

     total energy              =    -276.01525095 Ry
     estimated scf accuracy    <       0.00000051 Ry

     iteration #  2     ecut=    90.00 Ry     beta= 0.70
     Davidson diagonalization with overlap
     ethr =  8.00E-10,  avg # of iterations =  2.0

     total cpu time spent up to now is     2606.4 secs

     total energy              =    -276.01525102 Ry
     estimated scf accuracy    <       0.00000002 Ry

     iteration #  3     ecut=    90.00 Ry     beta= 0.70
     Davidson diagonalization with overlap
     ethr =  3.73E-11,  avg # of iterations =  2.2

     total cpu time spent up to now is     2615.4 secs

     total energy              =    -276.01525103 Ry
     estimated scf accuracy    <          4.6E-09 Ry

     iteration #  4     ecut=    90.00 Ry     beta= 0.70
     Davidson diagonalization with overlap
     ethr =  7.25E-12,  avg # of iterations =  3.0

     total cpu time spent up to now is     2625.1 secs

     End of self-consistent calculation

     Number of k-points >= 100: set verbosity='high' to print the bands.

     highest occupied level (ev):    -2.6289

!    total energy              =    -276.01525103 Ry
     estimated scf accuracy    <          7.7E-10 Ry

     The total energy is the sum of the following terms:
     one-electron contribution =    -219.12274660 Ry
     hartree contribution      =     131.92164771 Ry
     xc contribution           =     -67.92091213 Ry
     ewald contribution        =    -120.89324000 Ry

     convergence has been achieved in   4 iterations

     Forces acting on atoms (cartesian axes, Ry/au):

     atom    1 type  2   force =     0.00000000    0.00004963    0.00002534
     atom    2 type  2   force =     0.00000000   -0.00000041   -0.00003996
     atom    3 type  2   force =     0.00000000    0.00002271   -0.00000618
     atom    4 type  2   force =     0.00000000   -0.00002739   -0.00000814
     atom    5 type  2   force =     0.00000000    0.00000383   -0.00005107
     atom    6 type  2   force =     0.00000000   -0.00000331   -0.00005270
     atom    7 type  2   force =     0.00000000   -0.00000493   -0.00004586
     atom    8 type  2   force =     0.00000000   -0.00001229   -0.00005795
     atom    9 type  1   force =     0.00000000   -0.00010471   -0.00002115
     atom   10 type  1   force =     0.00000000    0.00010334    0.00002330
     atom   11 type  1   force =     0.00000000   -0.00010383   -0.00000024
     atom   12 type  1   force =     0.00000000    0.00010427    0.00000229
     atom   13 type  1   force =     0.00000000   -0.00000702    0.00001020
     atom   14 type  1   force =     0.00000000   -0.00003547    0.00002473
     atom   15 type  1   force =     0.00000000    0.00001610    0.00001764
     atom   16 type  1   force =     0.00000000   -0.00001225    0.00001726
     atom   17 type  1   force =    -0.00001362   -0.00000006    0.00001944
     atom   18 type  1   force =     0.00001333   -0.00000087    0.00002119
     atom   19 type  1   force =    -0.00001333   -0.00000087    0.00002119
     atom   20 type  1   force =     0.00001362   -0.00000006    0.00001944
     atom   21 type  1   force =    -0.00001834    0.00000383    0.00001785
     atom   22 type  1   force =     0.00000863    0.00000298    0.00002278
     atom   23 type  1   force =    -0.00000863    0.00000298    0.00002278
     atom   24 type  1   force =     0.00001834    0.00000383    0.00001785

     Total force =     0.000263     Total SCF correction =     0.000040
     SCF correction compared to forces is large: reduce conv_thr to get better values


     Computing stress (Cartesian axis) and pressure

          total   stress  (Ry/bohr**3)                   (kbar)     P=       14.87
   0.00009920   0.00000000   0.00000000           14.59        0.00        0.00
   0.00000000   0.00010260   0.00000002            0.00       15.09        0.00
   0.00000000   0.00000002   0.00010148            0.00        0.00       14.93

     Energy error            =      3.3E-07 Ry
     Gradient error          =      1.0E-04 Ry/Bohr

     number of scf cycles    =  35
     number of bfgs steps    =  34

     energy             old  =    -276.0152506998 Ry
     energy             new  =    -276.0152510295 Ry

     CASE: energy            _new < energy            _old

     new trust radius        =       0.0008129688 bohr
     new conv_thr            =       0.0000000010 Ry


ATOMIC_POSITIONS (crystal)
O                0.0000000000        0.6618586724        0.0583373394
O                0.0000000000        0.3381427345        0.5583352002
O                0.5000000000        0.1618580201        0.0583362992
O                0.5000000000        0.8381420073        0.5583363377
O                0.5000000000        0.8286524656        0.9340279959
O                0.5000000000        0.1713475924        0.4340278743
O                0.0000000000        0.3286520785        0.9340279458
O                0.0000000000        0.6713472356        0.4340278099
H                0.0000000000        0.6632907163        0.2044283645
H                0.0000000000        0.3367091219        0.7044298154
H                0.5000000000        0.1632909561        0.2044290660
H                0.5000000000        0.8367092649        0.7044291907
H                0.0000000000        0.5306011082        0.0154631723
H                0.0000000000        0.4693974578        0.5154637209
H                0.5000000000        0.0306019628        0.0154635150
H                0.5000000000        0.9693982510        0.5154634754
H                0.6912900879        0.7611802060        0.9828716432
H                0.3087098746        0.2388197949        0.4828716206
H                0.6912901254        0.2388197949        0.4828716206
H                0.3087099121        0.7611802060        0.9828716432
H                0.1912898214        0.2611802857        0.9828714649
H                0.8087096132        0.7388198907        0.4828717430
H                0.1912903868        0.7388198907        0.4828717430
H                0.8087101786        0.2611802857        0.9828714649



     Writing config-only to output data dir ./iceIh/iceIh.save/ :
     XML data file
     NEW-OLD atomic charge density approx. for the potential

     total cpu time spent up to now is     2633.4 secs

     per-process dynamical memory:    58.8 Mb

     Self-consistent Calculation

     iteration #  1     ecut=    90.00 Ry     beta= 0.70
     Davidson diagonalization with overlap
     ethr =  1.00E-06,  avg # of iterations =  2.0

     Threshold (ethr) on eigenvalues was too large:
     Diagonalizing with lowered threshold

     Davidson diagonalization with overlap
     ethr =  1.17E-10,  avg # of iterations =  4.3

     total cpu time spent up to now is     2653.4 secs

     total energy              =    -276.01525123 Ry
     estimated scf accuracy    <       0.00000010 Ry

     iteration #  2     ecut=    90.00 Ry     beta= 0.70
     Davidson diagonalization with overlap
     ethr =  1.58E-10,  avg # of iterations =  2.0

     total cpu time spent up to now is     2661.8 secs

     total energy              =    -276.01525124 Ry
     estimated scf accuracy    <       0.00000002 Ry

     iteration #  3     ecut=    90.00 Ry     beta= 0.70
     Davidson diagonalization with overlap
     ethr =  2.95E-11,  avg # of iterations =  2.4

     total cpu time spent up to now is     2671.1 secs

     total energy              =    -276.01525125 Ry
     estimated scf accuracy    <          3.3E-09 Ry

     iteration #  4     ecut=    90.00 Ry     beta= 0.70
     Davidson diagonalization with overlap
     ethr =  5.09E-12,  avg # of iterations =  2.3

     total cpu time spent up to now is     2678.5 secs

     End of self-consistent calculation

     Number of k-points >= 100: set verbosity='high' to print the bands.

     highest occupied level (ev):    -2.6288

!    total energy              =    -276.01525125 Ry
     estimated scf accuracy    <          2.1E-10 Ry

     The total energy is the sum of the following terms:
     one-electron contribution =    -219.12235519 Ry
     hartree contribution      =     131.92152077 Ry
     xc contribution           =     -67.92085772 Ry
     ewald contribution        =    -120.89355912 Ry

     convergence has been achieved in   4 iterations

     Forces acting on atoms (cartesian axes, Ry/au):

     atom    1 type  2   force =     0.00000000    0.00000362   -0.00004262
     atom    2 type  2   force =     0.00000000   -0.00003974    0.00000574
     atom    3 type  2   force =     0.00000000    0.00002341   -0.00001946
     atom    4 type  2   force =     0.00000000   -0.00002004   -0.00001735
     atom    5 type  2   force =     0.00000000    0.00001217   -0.00003175
     atom    6 type  2   force =     0.00000000   -0.00001299   -0.00002954
     atom    7 type  2   force =     0.00000000    0.00001899   -0.00003536
     atom    8 type  2   force =     0.00000000   -0.00000589   -0.00002592
     atom    9 type  1   force =     0.00000000   -0.00004179    0.00000779
     atom   10 type  1   force =     0.00000000    0.00004261   -0.00002341
     atom   11 type  1   force =     0.00000000   -0.00004236   -0.00000712
     atom   12 type  1   force =     0.00000000    0.00004209   -0.00000829
     atom   13 type  1   force =     0.00000000    0.00001989    0.00002387
     atom   14 type  1   force =     0.00000000    0.00001074    0.00001369
     atom   15 type  1   force =     0.00000000    0.00000349    0.00001861
     atom   16 type  1   force =     0.00000000   -0.00000571    0.00001903
     atom   17 type  1   force =    -0.00003869   -0.00000636    0.00001948
     atom   18 type  1   force =     0.00003882    0.00000703    0.00001855
     atom   19 type  1   force =    -0.00003882    0.00000703    0.00001855
     atom   20 type  1   force =     0.00003869   -0.00000636    0.00001948
     atom   21 type  1   force =    -0.00003514   -0.00000911    0.00002064
     atom   22 type  1   force =     0.00004242    0.00000421    0.00001737
     atom   23 type  1   force =    -0.00004242    0.00000421    0.00001737
     atom   24 type  1   force =     0.00003514   -0.00000911    0.00002064

     Total force =     0.000187     Total SCF correction =     0.000019
     SCF correction compared to forces is large: reduce conv_thr to get better values


     Computing stress (Cartesian axis) and pressure

          total   stress  (Ry/bohr**3)                   (kbar)     P=       14.86
   0.00009881   0.00000000   0.00000000           14.54        0.00        0.00
   0.00000000   0.00010269  -0.00000002            0.00       15.11       -0.00
   0.00000000  -0.00000002   0.00010158            0.00       -0.00       14.94

     Energy error            =      2.2E-07 Ry
     Gradient error          =      4.3E-05 Ry/Bohr

     bfgs converged in  36 scf cycles and  35 bfgs steps
     (criteria: energy <  1.0E-04 Ry, force <  1.0E-04 Ry/Bohr)

     End of BFGS Geometry Optimization

     Final energy             =    -276.0152512461 Ry

     File ./iceIh/iceIh.bfgs deleted, as requested
Begin final coordinates

ATOMIC_POSITIONS (crystal)
O                0.0000000000        0.6618586724        0.0583373394
O                0.0000000000        0.3381427345        0.5583352002
O                0.5000000000        0.1618580201        0.0583362992
O                0.5000000000        0.8381420073        0.5583363377
O                0.5000000000        0.8286524656        0.9340279959
O                0.5000000000        0.1713475924        0.4340278743
O                0.0000000000        0.3286520785        0.9340279458
O                0.0000000000        0.6713472356        0.4340278099
H                0.0000000000        0.6632907163        0.2044283645
H                0.0000000000        0.3367091219        0.7044298154
H                0.5000000000        0.1632909561        0.2044290660
H                0.5000000000        0.8367092649        0.7044291907
H                0.0000000000        0.5306011082        0.0154631723
H                0.0000000000        0.4693974578        0.5154637209
H                0.5000000000        0.0306019628        0.0154635150
H                0.5000000000        0.9693982510        0.5154634754
H                0.6912900879        0.7611802060        0.9828716432
H                0.3087098746        0.2388197949        0.4828716206
H                0.6912901254        0.2388197949        0.4828716206
H                0.3087099121        0.7611802060        0.9828716432
H                0.1912898214        0.2611802857        0.9828714649
H                0.8087096132        0.7388198907        0.4828717430
H                0.1912903868        0.7388198907        0.4828717430
H                0.8087101786        0.2611802857        0.9828714649
End final coordinates



     Writing all to output data dir ./iceIh/iceIh.save/ :
     XML data file, charge density, pseudopotentials, collected wavefunctions

     init_run     :      4.23s CPU      4.32s WALL (       1 calls)
     electrons    :   2342.13s CPU   2385.59s WALL (      36 calls)
     update_pot   :      0.44s CPU      0.46s WALL (      35 calls)
     forces       :     18.41s CPU     18.47s WALL (      36 calls)
     stress       :    272.35s CPU    272.50s WALL (      36 calls)

     Called by init_run:
     wfcinit      :      3.78s CPU      3.83s WALL (       1 calls)
     potinit      :      0.03s CPU      0.04s WALL (       1 calls)
     hinit0       :      0.35s CPU      0.35s WALL (       1 calls)

     Called by electrons:
     c_bands      :   2087.18s CPU   2125.70s WALL (     246 calls)
     sum_band     :    251.40s CPU    253.97s WALL (     246 calls)
     v_of_rho     :      2.50s CPU      2.52s WALL (     253 calls)
     newd         :      0.47s CPU      0.49s WALL (     253 calls)
     mix_rho      :      0.33s CPU      0.34s WALL (     246 calls)

     Called by c_bands:
     init_us_2    :     30.61s CPU     31.68s WALL (   64975 calls)
     cegterg      :   2012.55s CPU   2032.10s WALL (   28290 calls)

     Called by *egterg:
     cdiaghg      :    184.22s CPU    185.13s WALL (  104320 calls)
     h_psi        :   1515.58s CPU   1532.71s WALL (  111795 calls)
     s_psi        :     58.79s CPU     59.25s WALL (  111795 calls)
     g_psi        :      5.35s CPU      5.37s WALL (   83390 calls)

     Called by h_psi:
     h_psi:calbec :     91.52s CPU     92.38s WALL (  111795 calls)
     vloc_psi     :   1350.57s CPU   1366.03s WALL (  111795 calls)
     add_vuspsi   :     63.50s CPU     64.12s WALL (  111795 calls)

     General routines
     calbec       :    130.34s CPU    131.57s WALL (  160785 calls)
     fft          :      1.70s CPU      1.71s WALL (    3135 calls)
     ffts         :      0.13s CPU      0.13s WALL (     246 calls)
     fftw         :   1418.95s CPU   1434.68s WALL ( 6522192 calls)

     Parallel routines

     PWSCF        :  44m 3.41s CPU  44m55.18s WALL


   This run was terminated on:  22:43:45  31Mar2026            

=------------------------------------------------------------------------------=
   JOB DONE.
=------------------------------------------------------------------------------=
