
     Program PWSCF v.7.3.1 starts on 20Mar2026 at 21:40:31 

     This program is part of the open-source Quantum ESPRESSO suite
     for quantum simulation of materials; please cite
         "P. Giannozzi et al., J. Phys.:Condens. Matter 21 395502 (2009);
         "P. Giannozzi et al., J. Phys.:Condens. Matter 29 465901 (2017);
         "P. Giannozzi et al., J. Chem. Phys. 152 154105 (2020);
          URL http://www.quantum-espresso.org", 
     in publications or presentations arising from this work. More details at
     http://www.quantum-espresso.org/quote

     Parallel version (MPI), running on   128 processors

     MPI processes distributed on     1 nodes
     237927 MiB available memory on the printing compute node when the environment starts

     Waiting for input...
     Reading input from standard input

     Current dimensions of program PWSCF are:
     Max number of different atomic species (ntypx) = 10
     Max number of k-points (npk) =  40000
     Max angular momentum in pseudopotentials (lmaxx) =  4
     Found identity + ( -0.5000 -0.5000  0.0000) symmetry
     This is a supercell, fractional translations are disabled

     K-points division:     npool     =       4
     R & G space division:  proc/nbgrp/npool/nimage =      32
     Subspace diagonalization in iterative solution of the eigenvalue problem:
     a serial algorithm will be used


     Parallelization info
     --------------------
     sticks:   dense  smooth     PW     G-vecs:    dense   smooth      PW
     Min         101     101     27                 5365     5365     777
     Max         102     102     28                 5372     5372     784
     Sum        3241    3241    889               171723   171723   24989

     Using Slab Decomposition



     bravais-lattice index     =            8
     lattice parameter (alat)  =       8.0822  a.u.
     unit-cell volume          =    1488.4749 (a.u.)^3
     number of atoms/cell      =           24
     number of atomic types    =            2
     number of electrons       =        64.00
     number of Kohn-Sham states=           32
     kinetic-energy cutoff     =      90.0000  Ry
     charge density cutoff     =     360.0000  Ry
     scf convergence threshold =      1.0E-07
     mixing beta               =       0.7000
     number of iterations used =            8  plain     mixing
     Exchange-correlation=  SLA  PW   PBE  PBE
                           (   1   4   3   4   0   0   0)

     celldm(1)=   8.082169  celldm(2)=   1.732119  celldm(3)=   1.627721
     celldm(4)=   0.000000  celldm(5)=   0.000000  celldm(6)=   0.000000

     crystal axes: (cart. coord. in units of alat)
               a(1) = (   1.000000   0.000000   0.000000 )  
               a(2) = (   0.000000   1.732119   0.000000 )  
               a(3) = (   0.000000   0.000000   1.627721 )  

     reciprocal axes: (cart. coord. in units 2 pi/alat)
               b(1) = (  1.000000  0.000000  0.000000 )  
               b(2) = (  0.000000  0.577328  0.000000 )  
               b(3) = (  0.000000  0.000000  0.614356 )  


     PseudoPot. # 1 for H  read from file:
     ./H.pbe-van_ak.UPF
     MD5 check sum: 077eb6d537518a38cb46c6de387227b7
     Pseudo is Ultrasoft, Zval =  1.0
     Generated by new atomic code, or converted to UPF format
     Using radial grid of  615 points,  1 beta functions with: 
                l(1) =   0
     Q(r) pseudized with  8 coefficients,  rinner =    0.800

     PseudoPot. # 2 for O  read from file:
     ./O.pbe-van_ak.UPF
     MD5 check sum: 78c19812648e8988a0fe644b0f25305e
     Pseudo is Ultrasoft, Zval =  6.0
     Generated by new atomic code, or converted to UPF format
     Using radial grid of  737 points,  4 beta functions with: 
                l(1) =   0
                l(2) =   0
                l(3) =   1
                l(4) =   1
     Q(r) pseudized with  8 coefficients,  rinner =    0.800   0.800   0.800


     atomic species   valence    mass     pseudopotential
     H                 1.00     1.00800     H ( 1.00)
     O                 6.00    16.00000     O ( 1.00)

      2 Sym. Ops. (no inversion) found



   Cartesian axes

     site n.     atom                  positions (alat units)
         1        O      tau(   1) = (   0.0000000   1.1515127   0.1027092  )
         2        O      tau(   2) = (   0.0000000   0.5806063   0.9165697  )
         3        O      tau(   3) = (   0.5000000   0.2854532   0.1027092  )
         4        O      tau(   4) = (   0.5000000   1.4466659   0.9165697  )
         5        O      tau(   5) = (   0.5000000   1.4298643   1.5250118  )
         6        O      tau(   6) = (   0.5000000   0.3022548   0.7111513  )
         7        O      tau(   7) = (   0.0000000   0.5638048   1.5250118  )
         8        O      tau(   8) = (   0.0000000   1.1683143   0.7111513  )
         9        H      tau(   9) = (   0.0000000   1.1494343   0.3195216  )
        10        H      tau(  10) = (   0.0000000   0.5826848   1.1333822  )
        11        H      tau(  11) = (   0.5000000   0.2833747   0.3195216  )
        12        H      tau(  12) = (   0.5000000   1.4487443   1.1333822  )
        13        H      tau(  13) = (   0.0000000   0.9289355   0.0297873  )
        14        H      tau(  14) = (   0.0000000   0.8031836   0.8436478  )
        15        H      tau(  15) = (   0.5000000   0.0628759   0.0297873  )
        16        H      tau(  16) = (   0.5000000   1.6692431   0.8436478  )
        17        H      tau(  17) = (   0.6766000   1.3420459   1.5979337  )
        18        H      tau(  18) = (   0.3234000   0.3900732   0.7840732  )
        19        H      tau(  19) = (   0.6766000   0.3900732   0.7840732  )
        20        H      tau(  20) = (   0.3234000   1.3420459   1.5979337  )
        21        H      tau(  21) = (   0.1766000   0.4759863   1.5979337  )
        22        H      tau(  22) = (   0.8234000   1.2561327   0.7840732  )
        23        H      tau(  23) = (   0.1766000   1.2561327   0.7840732  )
        24        H      tau(  24) = (   0.8234000   0.4759863   1.5979337  )

     number of k points=   460

     Number of k-points >= 100: set verbosity='high' to print them.

     Dense  grid:   171723 G-vectors     FFT dimensions: (  50,  90,  80)

     Estimated max dynamical RAM per process >      45.15 MB

     Estimated total dynamical RAM >       5.52 GB

     Initial potential from superposition of free atoms

     starting charge      63.9998, renormalised to      64.0000
     Starting wfcs are   48 randomized atomic wfcs

     total cpu time spent up to now is        4.5 secs

     per-process dynamical memory:    53.1 Mb

     Self-consistent Calculation

     iteration #  1     ecut=    90.00 Ry     beta= 0.70
     Davidson diagonalization with overlap
     ethr =  1.00E-02,  avg # of iterations =  2.0

     total cpu time spent up to now is       13.0 secs

     total energy              =    -274.60411194 Ry
     estimated scf accuracy    <       3.06477545 Ry

     iteration #  2     ecut=    90.00 Ry     beta= 0.70
     Davidson diagonalization with overlap
     ethr =  4.79E-03,  avg # of iterations =  3.0

     total cpu time spent up to now is       23.9 secs

     total energy              =    -275.59142966 Ry
     estimated scf accuracy    <       1.36225656 Ry

     iteration #  3     ecut=    90.00 Ry     beta= 0.70
     Davidson diagonalization with overlap
     ethr =  2.13E-03,  avg # of iterations =  2.0

     total cpu time spent up to now is       32.0 secs

     total energy              =    -275.75975937 Ry
     estimated scf accuracy    <       0.05213706 Ry

     iteration #  4     ecut=    90.00 Ry     beta= 0.70
     Davidson diagonalization with overlap
     ethr =  8.15E-05,  avg # of iterations =  4.0

     total cpu time spent up to now is       43.9 secs

     total energy              =    -275.79631017 Ry
     estimated scf accuracy    <       0.06572132 Ry

     iteration #  5     ecut=    90.00 Ry     beta= 0.70
     Davidson diagonalization with overlap
     ethr =  8.15E-05,  avg # of iterations =  2.0

     total cpu time spent up to now is       51.8 secs

     total energy              =    -275.80039128 Ry
     estimated scf accuracy    <       0.00915694 Ry

     iteration #  6     ecut=    90.00 Ry     beta= 0.70
     Davidson diagonalization with overlap
     ethr =  1.43E-05,  avg # of iterations =  2.0

     total cpu time spent up to now is       59.8 secs

     total energy              =    -275.80124739 Ry
     estimated scf accuracy    <       0.00171625 Ry

     iteration #  7     ecut=    90.00 Ry     beta= 0.70
     Davidson diagonalization with overlap
     ethr =  2.68E-06,  avg # of iterations =  3.0

     total cpu time spent up to now is       68.7 secs

     total energy              =    -275.80159654 Ry
     estimated scf accuracy    <       0.00012004 Ry

     iteration #  8     ecut=    90.00 Ry     beta= 0.70
     Davidson diagonalization with overlap
     ethr =  1.88E-07,  avg # of iterations =  3.3

     total cpu time spent up to now is       78.6 secs

     total energy              =    -275.80163675 Ry
     estimated scf accuracy    <       0.00000649 Ry

     iteration #  9     ecut=    90.00 Ry     beta= 0.70
     Davidson diagonalization with overlap
     ethr =  1.01E-08,  avg # of iterations =  3.9

     total cpu time spent up to now is       90.3 secs

     total energy              =    -275.80164474 Ry
     estimated scf accuracy    <       0.00001355 Ry

     iteration # 10     ecut=    90.00 Ry     beta= 0.70
     Davidson diagonalization with overlap
     ethr =  1.01E-08,  avg # of iterations =  1.0

     total cpu time spent up to now is       96.5 secs

     total energy              =    -275.80164003 Ry
     estimated scf accuracy    <       0.00001107 Ry

     iteration # 11     ecut=    90.00 Ry     beta= 0.70
     Davidson diagonalization with overlap
     ethr =  1.01E-08,  avg # of iterations =  2.0

     total cpu time spent up to now is      105.5 secs

     total energy              =    -275.80164097 Ry
     estimated scf accuracy    <       0.00000100 Ry

     iteration # 12     ecut=    90.00 Ry     beta= 0.70
     Davidson diagonalization with overlap
     ethr =  1.56E-09,  avg # of iterations =  3.0

     total cpu time spent up to now is      115.5 secs

     End of self-consistent calculation

     Number of k-points >= 100: set verbosity='high' to print the bands.

     highest occupied level (ev):    -2.7813

!    total energy              =    -275.80164135 Ry
     estimated scf accuracy    <       0.00000007 Ry

     The total energy is the sum of the following terms:
     one-electron contribution =    -229.45982739 Ry
     hartree contribution      =     136.53655757 Ry
     xc contribution           =     -68.89994191 Ry
     ewald contribution        =    -113.97842962 Ry

     convergence has been achieved in  12 iterations

     Forces acting on atoms (cartesian axes, Ry/au):

     atom    1 type  2   force =     0.00000000   -0.00153345   -0.14494589
     atom    2 type  2   force =     0.00000000    0.00153119   -0.14494726
     atom    3 type  2   force =     0.00000000   -0.00153030   -0.14494911
     atom    4 type  2   force =     0.00000000    0.00153538   -0.14494308
     atom    5 type  2   force =     0.00000000    0.21283028   -0.15842765
     atom    6 type  2   force =     0.00000000   -0.21283005   -0.15843100
     atom    7 type  2   force =     0.00000000    0.21282924   -0.15842800
     atom    8 type  2   force =     0.00000000   -0.21283096   -0.15842817
     atom    9 type  1   force =     0.00000000   -0.00039623    0.14208517
     atom   10 type  1   force =     0.00000000    0.00039617    0.14208394
     atom   11 type  1   force =     0.00000000   -0.00039619    0.14208420
     atom   12 type  1   force =     0.00000000    0.00039623    0.14208478
     atom   13 type  1   force =     0.00000000   -0.00147178   -0.00316917
     atom   14 type  1   force =     0.00000000    0.00147143   -0.00316904
     atom   15 type  1   force =     0.00000000   -0.00147139   -0.00316907
     atom   16 type  1   force =     0.00000000    0.00147137   -0.00316896
     atom   17 type  1   force =     0.17993955   -0.10559452    0.08222992
     atom   18 type  1   force =    -0.17993864    0.10559384    0.08222948
     atom   19 type  1   force =     0.17993864    0.10559384    0.08222948
     atom   20 type  1   force =    -0.17993955   -0.10559452    0.08222992
     atom   21 type  1   force =     0.17993917   -0.10559421    0.08222982
     atom   22 type  1   force =    -0.17993949    0.10559442    0.08222993
     atom   23 type  1   force =     0.17993949    0.10559442    0.08222993
     atom   24 type  1   force =    -0.17993917   -0.10559421    0.08222982

     Total force =     0.921278     Total SCF correction =     0.000187


     Computing stress (Cartesian axis) and pressure

          total   stress  (Ry/bohr**3)                   (kbar)     P=      165.67
   0.00163205   0.00000000   0.00000000          240.08        0.00        0.00
   0.00000000   0.00054678  -0.00000000            0.00       80.43       -0.00
   0.00000000  -0.00000000   0.00119975            0.00       -0.00      176.49


     Writing all to output data dir ./iceIh/iceIh.save/ :
     XML data file, charge density, pseudopotentials, collected wavefunctions

     init_run     :      4.20s CPU      4.30s WALL (       1 calls)
     electrons    :    109.31s CPU    111.05s WALL (       1 calls)
     forces       :      0.51s CPU      0.52s WALL (       1 calls)
     stress       :      7.61s CPU      7.64s WALL (       1 calls)

     Called by init_run:
     wfcinit      :      3.76s CPU      3.82s WALL (       1 calls)
     potinit      :      0.02s CPU      0.04s WALL (       1 calls)
     hinit0       :      0.35s CPU      0.35s WALL (       1 calls)

     Called by electrons:
     c_bands      :     96.87s CPU     98.41s WALL (      12 calls)
     sum_band     :     12.24s CPU     12.38s WALL (      12 calls)
     v_of_rho     :      0.13s CPU      0.14s WALL (      13 calls)
     newd         :      0.03s CPU      0.03s WALL (      13 calls)
     mix_rho      :      0.02s CPU      0.03s WALL (      12 calls)

     Called by c_bands:
     init_us_2    :      1.46s CPU      1.50s WALL (    3105 calls)
     cegterg      :     93.68s CPU     94.56s WALL (    1380 calls)

     Called by *egterg:
     cdiaghg      :      8.57s CPU      8.60s WALL (    5009 calls)
     h_psi        :     73.79s CPU     74.61s WALL (    5124 calls)
     s_psi        :      2.89s CPU      2.91s WALL (    5124 calls)
     g_psi        :      0.25s CPU      0.25s WALL (    3629 calls)

     Called by h_psi:
     h_psi:calbec :      4.44s CPU      4.49s WALL (    5124 calls)
     vloc_psi     :     65.81s CPU     66.54s WALL (    5124 calls)
     add_vuspsi   :      3.04s CPU      3.07s WALL (    5124 calls)

     General routines
     calbec       :      5.93s CPU      5.99s WALL (    7079 calls)
     fft          :      0.40s CPU      0.41s WALL (     151 calls)
     ffts         :      0.01s CPU      0.01s WALL (      12 calls)
     fftw         :     69.28s CPU     70.03s WALL (  318066 calls)

     Parallel routines

     PWSCF        :   2m 4.30s CPU   2m 9.25s WALL


   This run was terminated on:  21:42:40  20Mar2026            

=------------------------------------------------------------------------------=
   JOB DONE.
=------------------------------------------------------------------------------=
