
     Program PWSCF v.7.3.1 starts on 31Mar2026 at 23:26:14 

     This program is part of the open-source Quantum ESPRESSO suite
     for quantum simulation of materials; please cite
         "P. Giannozzi et al., J. Phys.:Condens. Matter 21 395502 (2009);
         "P. Giannozzi et al., J. Phys.:Condens. Matter 29 465901 (2017);
         "P. Giannozzi et al., J. Chem. Phys. 152 154105 (2020);
          URL http://www.quantum-espresso.org", 
     in publications or presentations arising from this work. More details at
     http://www.quantum-espresso.org/quote

     Parallel version (MPI), running on   128 processors

     MPI processes distributed on     1 nodes
     495417 MiB available memory on the printing compute node when the environment starts

     Waiting for input...
     Reading input from standard input

     Current dimensions of program PWSCF are:
     Max number of different atomic species (ntypx) = 10
     Max number of k-points (npk) =  40000
     Max angular momentum in pseudopotentials (lmaxx) =  4
     Found identity + ( -0.5000 -0.5000  0.0000) symmetry
     This is a supercell, fractional translations are disabled

     K-points division:     npool     =       4
     R & G space division:  proc/nbgrp/npool/nimage =      32
     Subspace diagonalization in iterative solution of the eigenvalue problem:
     a serial algorithm will be used


     Parallelization info
     --------------------
     sticks:   dense  smooth     PW     G-vecs:    dense   smooth      PW
     Min         102     102     28                 5450     5450     792
     Max         103     103     30                 5455     5455     796
     Sum        3269    3269    905               174463   174463   25419

     Using Slab Decomposition



     bravais-lattice index     =            8
     lattice parameter (alat)  =       8.1247  a.u.
     unit-cell volume          =    1512.1010 (a.u.)^3
     number of atoms/cell      =           24
     number of atomic types    =            2
     number of electrons       =        64.00
     number of Kohn-Sham states=           32
     kinetic-energy cutoff     =      90.0000  Ry
     charge density cutoff     =     360.0000  Ry
     scf convergence threshold =      1.0E-07
     mixing beta               =       0.7000
     number of iterations used =            8  plain     mixing
     energy convergence thresh.=      1.0E-04
     force convergence thresh. =      1.0E-04
     Exchange-correlation=  SLA  PW   PBE  PBE
                           (   1   4   3   4   0   0   0)
     nstep                     =           50


     celldm(1)=   8.124707  celldm(2)=   1.732119  celldm(3)=   1.627721
     celldm(4)=   0.000000  celldm(5)=   0.000000  celldm(6)=   0.000000

     crystal axes: (cart. coord. in units of alat)
               a(1) = (   1.000000   0.000000   0.000000 )  
               a(2) = (   0.000000   1.732119   0.000000 )  
               a(3) = (   0.000000   0.000000   1.627721 )  

     reciprocal axes: (cart. coord. in units 2 pi/alat)
               b(1) = (  1.000000  0.000000  0.000000 )  
               b(2) = (  0.000000  0.577328  0.000000 )  
               b(3) = (  0.000000  0.000000  0.614356 )  


     PseudoPot. # 1 for H  read from file:
     ./H.pbe-van_ak.UPF
     MD5 check sum: 077eb6d537518a38cb46c6de387227b7
     Pseudo is Ultrasoft, Zval =  1.0
     Generated by new atomic code, or converted to UPF format
     Using radial grid of  615 points,  1 beta functions with: 
                l(1) =   0
     Q(r) pseudized with  8 coefficients,  rinner =    0.800

     PseudoPot. # 2 for O  read from file:
     ./O.pbe-van_ak.UPF
     MD5 check sum: 78c19812648e8988a0fe644b0f25305e
     Pseudo is Ultrasoft, Zval =  6.0
     Generated by new atomic code, or converted to UPF format
     Using radial grid of  737 points,  4 beta functions with: 
                l(1) =   0
                l(2) =   0
                l(3) =   1
                l(4) =   1
     Q(r) pseudized with  8 coefficients,  rinner =    0.800   0.800   0.800


     atomic species   valence    mass     pseudopotential
     H                 1.00     1.00800     H ( 1.00)
     O                 6.00    16.00000     O ( 1.00)

      2 Sym. Ops. (no inversion) found



   Cartesian axes

     site n.     atom                  positions (alat units)
         1        O      tau(   1) = (   0.0000000   1.1515127   0.1027092  )
         2        O      tau(   2) = (   0.0000000   0.5806063   0.9165697  )
         3        O      tau(   3) = (   0.5000000   0.2854532   0.1027092  )
         4        O      tau(   4) = (   0.5000000   1.4466659   0.9165697  )
         5        O      tau(   5) = (   0.5000000   1.4298643   1.5250118  )
         6        O      tau(   6) = (   0.5000000   0.3022548   0.7111513  )
         7        O      tau(   7) = (   0.0000000   0.5638048   1.5250118  )
         8        O      tau(   8) = (   0.0000000   1.1683143   0.7111513  )
         9        H      tau(   9) = (   0.0000000   1.1494343   0.3195216  )
        10        H      tau(  10) = (   0.0000000   0.5826848   1.1333822  )
        11        H      tau(  11) = (   0.5000000   0.2833747   0.3195216  )
        12        H      tau(  12) = (   0.5000000   1.4487443   1.1333822  )
        13        H      tau(  13) = (   0.0000000   0.9289355   0.0297873  )
        14        H      tau(  14) = (   0.0000000   0.8031836   0.8436478  )
        15        H      tau(  15) = (   0.5000000   0.0628759   0.0297873  )
        16        H      tau(  16) = (   0.5000000   1.6692431   0.8436478  )
        17        H      tau(  17) = (   0.6766000   1.3420459   1.5979337  )
        18        H      tau(  18) = (   0.3234000   0.3900732   0.7840732  )
        19        H      tau(  19) = (   0.6766000   0.3900732   0.7840732  )
        20        H      tau(  20) = (   0.3234000   1.3420459   1.5979337  )
        21        H      tau(  21) = (   0.1766000   0.4759863   1.5979337  )
        22        H      tau(  22) = (   0.8234000   1.2561327   0.7840732  )
        23        H      tau(  23) = (   0.1766000   1.2561327   0.7840732  )
        24        H      tau(  24) = (   0.8234000   0.4759863   1.5979337  )

     number of k points=   460

     Number of k-points >= 100: set verbosity='high' to print them.

     Dense  grid:   174463 G-vectors     FFT dimensions: (  50,  90,  80)

     Estimated max dynamical RAM per process >      45.86 MB

     Estimated total dynamical RAM >       5.61 GB

     Initial potential from superposition of free atoms

     starting charge      63.9998, renormalised to      64.0000
     Starting wfcs are   48 randomized atomic wfcs

     total cpu time spent up to now is        4.7 secs

     per-process dynamical memory:    53.7 Mb

     Self-consistent Calculation

     iteration #  1     ecut=    90.00 Ry     beta= 0.70
     Davidson diagonalization with overlap
     ethr =  1.00E-02,  avg # of iterations =  2.0

     total cpu time spent up to now is       13.3 secs

     total energy              =    -274.63495426 Ry
     estimated scf accuracy    <       3.03411057 Ry

     iteration #  2     ecut=    90.00 Ry     beta= 0.70
     Davidson diagonalization with overlap
     ethr =  4.74E-03,  avg # of iterations =  3.0

     total cpu time spent up to now is       24.2 secs

     total energy              =    -275.60960832 Ry
     estimated scf accuracy    <       1.39289927 Ry

     iteration #  3     ecut=    90.00 Ry     beta= 0.70
     Davidson diagonalization with overlap
     ethr =  2.18E-03,  avg # of iterations =  2.0

     total cpu time spent up to now is       32.4 secs

     total energy              =    -275.78431250 Ry
     estimated scf accuracy    <       0.05289350 Ry

     iteration #  4     ecut=    90.00 Ry     beta= 0.70
     Davidson diagonalization with overlap
     ethr =  8.26E-05,  avg # of iterations =  4.0

     total cpu time spent up to now is       44.7 secs

     total energy              =    -275.82227094 Ry
     estimated scf accuracy    <       0.06703232 Ry

     iteration #  5     ecut=    90.00 Ry     beta= 0.70
     Davidson diagonalization with overlap
     ethr =  8.26E-05,  avg # of iterations =  2.0

     total cpu time spent up to now is       52.6 secs

     total energy              =    -275.82602258 Ry
     estimated scf accuracy    <       0.00931523 Ry

     iteration #  6     ecut=    90.00 Ry     beta= 0.70
     Davidson diagonalization with overlap
     ethr =  1.46E-05,  avg # of iterations =  2.0

     total cpu time spent up to now is       60.8 secs

     total energy              =    -275.82649573 Ry
     estimated scf accuracy    <       0.00192064 Ry

     iteration #  7     ecut=    90.00 Ry     beta= 0.70
     Davidson diagonalization with overlap
     ethr =  3.00E-06,  avg # of iterations =  2.8

     total cpu time spent up to now is       70.9 secs

     total energy              =    -275.82728272 Ry
     estimated scf accuracy    <       0.00007455 Ry

     iteration #  8     ecut=    90.00 Ry     beta= 0.70
     Davidson diagonalization with overlap
     ethr =  1.16E-07,  avg # of iterations =  2.9

     total cpu time spent up to now is       80.3 secs

     total energy              =    -275.82728712 Ry
     estimated scf accuracy    <       0.00005584 Ry

     iteration #  9     ecut=    90.00 Ry     beta= 0.70
     Davidson diagonalization with overlap
     ethr =  8.73E-08,  avg # of iterations =  1.0

     total cpu time spent up to now is       86.6 secs

     total energy              =    -275.82727992 Ry
     estimated scf accuracy    <       0.00002251 Ry

     iteration # 10     ecut=    90.00 Ry     beta= 0.70
     Davidson diagonalization with overlap
     ethr =  3.52E-08,  avg # of iterations =  2.0

     total cpu time spent up to now is       94.9 secs

     total energy              =    -275.82728236 Ry
     estimated scf accuracy    <       0.00000159 Ry

     iteration # 11     ecut=    90.00 Ry     beta= 0.70
     Davidson diagonalization with overlap
     ethr =  2.49E-09,  avg # of iterations =  2.7

     total cpu time spent up to now is      104.5 secs

     End of self-consistent calculation

     Number of k-points >= 100: set verbosity='high' to print the bands.

     highest occupied level (ev):    -2.8528

!    total energy              =    -275.82728281 Ry
     estimated scf accuracy    <       0.00000003 Ry

     The total energy is the sum of the following terms:
     one-electron contribution =    -230.59291466 Ry
     hartree contribution      =     136.94500491 Ry
     xc contribution           =     -68.79768915 Ry
     ewald contribution        =    -113.38168391 Ry

     convergence has been achieved in  11 iterations

     Forces acting on atoms (cartesian axes, Ry/au):

     atom    1 type  2   force =     0.00000000   -0.00807287   -0.13548637
     atom    2 type  2   force =     0.00000000    0.00807276   -0.13548450
     atom    3 type  2   force =     0.00000000   -0.00806660   -0.13549016
     atom    4 type  2   force =     0.00000000    0.00806974   -0.13548628
     atom    5 type  2   force =     0.00000000    0.20112948   -0.14882911
     atom    6 type  2   force =     0.00000000   -0.20113056   -0.14882790
     atom    7 type  2   force =     0.00000000    0.20113102   -0.14882917
     atom    8 type  2   force =     0.00000000   -0.20113152   -0.14882882
     atom    9 type  1   force =     0.00000000   -0.00065013    0.12981424
     atom   10 type  1   force =     0.00000000    0.00064983    0.12981358
     atom   11 type  1   force =     0.00000000   -0.00064986    0.12981280
     atom   12 type  1   force =     0.00000000    0.00064963    0.12981311
     atom   13 type  1   force =     0.00000000    0.00560884   -0.00028475
     atom   14 type  1   force =     0.00000000   -0.00560911   -0.00028467
     atom   15 type  1   force =     0.00000000    0.00561120   -0.00028485
     atom   16 type  1   force =     0.00000000   -0.00561006   -0.00028485
     atom   17 type  1   force =     0.16735229   -0.09976542    0.07739343
     atom   18 type  1   force =    -0.16735234    0.09976501    0.07739357
     atom   19 type  1   force =     0.16735234    0.09976501    0.07739357
     atom   20 type  1   force =    -0.16735229   -0.09976542    0.07739343
     atom   21 type  1   force =     0.16735236   -0.09976537    0.07739342
     atom   22 type  1   force =    -0.16735223    0.09976488    0.07739343
     atom   23 type  1   force =     0.16735223    0.09976488    0.07739343
     atom   24 type  1   force =    -0.16735236   -0.09976537    0.07739342

     Total force =     0.862109     Total SCF correction =     0.000130


     Computing stress (Cartesian axis) and pressure

          total   stress  (Ry/bohr**3)                   (kbar)     P=      147.27
   0.00148255   0.00000000   0.00000000          218.09        0.00        0.00
   0.00000000   0.00044831   0.00000000            0.00       65.95        0.00
   0.00000000   0.00000000   0.00107242            0.00        0.00      157.76


     BFGS Geometry Optimization
     Energy error            =      0.0E+00 Ry
     Gradient error          =      2.0E-01 Ry/Bohr

     number of scf cycles    =   1
     number of bfgs steps    =   0

     energy             new  =    -275.8272828103 Ry

     new trust radius        =       0.2502077222 bohr
     new conv_thr            =       0.0000001000 Ry


ATOMIC_POSITIONS (crystal)
O                0.0000000000        0.6642263436        0.0528550983
O                0.0000000000        0.3357736483        0.5528552160
O                0.5000000000        0.1642267893        0.0528548112
O                0.5000000000        0.8357734338        0.5528550817
O                0.5000000000        0.8397919216        0.9256461932
O                0.5000000000        0.1602080015        0.4256462548
O                0.0000000000        0.3397920309        0.9256461893
O                0.0000000000        0.6602079335        0.4256461857
H                0.0000000000        0.6635538311        0.2061160023
H                0.0000000000        0.3364461479        0.7061159827
H                0.5000000000        0.1635538498        0.2061158936
H                0.5000000000        0.8364461334        0.7061159469
H                0.0000000000        0.5366985583        0.0182784694
H                0.0000000000        0.4633014224        0.5182784716
H                0.5000000000        0.0366987261        0.0182784621
H                0.5000000000        0.9633013551        0.5182784579
H                0.6971979270        0.7677108459        0.9875521660
H                0.3028020666        0.2322891251        0.4875521769
H                0.6971979334        0.2322891251        0.4875521769
H                0.3028020730        0.7677108459        0.9875521660
H                0.1971979359        0.2677108498        0.9875521656
H                0.8028020797        0.7322891159        0.4875521661
H                0.1971979203        0.7322891159        0.4875521661
H                0.8028020641        0.2677108498        0.9875521656



     Writing config-only to output data dir ./iceIh/iceIh.save/ :
     XML data file
     NEW-OLD atomic charge density approx. for the potential

     total cpu time spent up to now is      112.9 secs

     per-process dynamical memory:    57.8 Mb

     Self-consistent Calculation

     iteration #  1     ecut=    90.00 Ry     beta= 0.70
     Davidson diagonalization with overlap
     ethr =  1.00E-06,  avg # of iterations = 12.0

     total cpu time spent up to now is      143.0 secs

     total energy              =    -275.88972517 Ry
     estimated scf accuracy    <       0.18118985 Ry

     iteration #  2     ecut=    90.00 Ry     beta= 0.70
     Davidson diagonalization with overlap
     ethr =  2.83E-04,  avg # of iterations =  3.0

     total cpu time spent up to now is      153.2 secs

     total energy              =    -275.93275901 Ry
     estimated scf accuracy    <       0.05370623 Ry

     iteration #  3     ecut=    90.00 Ry     beta= 0.70
     Davidson diagonalization with overlap
     ethr =  8.39E-05,  avg # of iterations =  2.5

     total cpu time spent up to now is      162.0 secs

     total energy              =    -275.94366843 Ry
     estimated scf accuracy    <       0.00185613 Ry

     iteration #  4     ecut=    90.00 Ry     beta= 0.70
     Davidson diagonalization with overlap
     ethr =  2.90E-06,  avg # of iterations =  3.0

     total cpu time spent up to now is      172.4 secs

     total energy              =    -275.94426000 Ry
     estimated scf accuracy    <       0.00057143 Ry

     iteration #  5     ecut=    90.00 Ry     beta= 0.70
     Davidson diagonalization with overlap
     ethr =  8.93E-07,  avg # of iterations =  2.0

     total cpu time spent up to now is      180.9 secs

     total energy              =    -275.94432860 Ry
     estimated scf accuracy    <       0.00006559 Ry

     iteration #  6     ecut=    90.00 Ry     beta= 0.70
     Davidson diagonalization with overlap
     ethr =  1.02E-07,  avg # of iterations =  3.7

     total cpu time spent up to now is      191.8 secs

     total energy              =    -275.94434564 Ry
     estimated scf accuracy    <       0.00003266 Ry

     iteration #  7     ecut=    90.00 Ry     beta= 0.70
     Davidson diagonalization with overlap
     ethr =  5.10E-08,  avg # of iterations =  2.5

     total cpu time spent up to now is      201.4 secs

     total energy              =    -275.94435377 Ry
     estimated scf accuracy    <       0.00000040 Ry

     iteration #  8     ecut=    90.00 Ry     beta= 0.70
     Davidson diagonalization with overlap
     ethr =  6.21E-10,  avg # of iterations =  5.5

     total cpu time spent up to now is      215.8 secs

     total energy              =    -275.94435384 Ry
     estimated scf accuracy    <       0.00000164 Ry

     iteration #  9     ecut=    90.00 Ry     beta= 0.70
     Davidson diagonalization with overlap
     ethr =  6.21E-10,  avg # of iterations =  3.1

     total cpu time spent up to now is      226.1 secs

     total energy              =    -275.94435395 Ry
     estimated scf accuracy    <       0.00000014 Ry

     iteration # 10     ecut=    90.00 Ry     beta= 0.70
     Davidson diagonalization with overlap
     ethr =  2.16E-10,  avg # of iterations =  2.5

     total cpu time spent up to now is      235.8 secs

     End of self-consistent calculation

     Number of k-points >= 100: set verbosity='high' to print the bands.

     highest occupied level (ev):    -2.5545

!    total energy              =    -275.94435400 Ry
     estimated scf accuracy    <          5.5E-09 Ry

     The total energy is the sum of the following terms:
     one-electron contribution =    -217.35221433 Ry
     hartree contribution      =     130.99078872 Ry
     xc contribution           =     -67.47853810 Ry
     ewald contribution        =    -122.10439028 Ry

     convergence has been achieved in  10 iterations

     Forces acting on atoms (cartesian axes, Ry/au):

     atom    1 type  2   force =     0.00000000    0.06553802    0.07347937
     atom    2 type  2   force =     0.00000000   -0.06553786    0.07347822
     atom    3 type  2   force =     0.00000000    0.06553392    0.07348043
     atom    4 type  2   force =     0.00000000   -0.06553569    0.07347876
     atom    5 type  2   force =     0.00000000   -0.08220047    0.06787358
     atom    6 type  2   force =     0.00000000    0.08220084    0.06787299
     atom    7 type  2   force =     0.00000000   -0.08220142    0.06787363
     atom    8 type  2   force =     0.00000000    0.08220151    0.06787354
     atom    9 type  1   force =     0.00000000    0.00707550   -0.03430588
     atom   10 type  1   force =     0.00000000   -0.00707544   -0.03430508
     atom   11 type  1   force =     0.00000000    0.00707638   -0.03430661
     atom   12 type  1   force =     0.00000000   -0.00707587   -0.03430563
     atom   13 type  1   force =     0.00000000   -0.04905173   -0.03002430
     atom   14 type  1   force =     0.00000000    0.04905146   -0.03002413
     atom   15 type  1   force =     0.00000000   -0.04904927   -0.03002419
     atom   16 type  1   force =     0.00000000    0.04905010   -0.03002399
     atom   17 type  1   force =    -0.04410973    0.03024362   -0.03851129
     atom   18 type  1   force =     0.04410975   -0.03024368   -0.03851122
     atom   19 type  1   force =    -0.04410975   -0.03024368   -0.03851122
     atom   20 type  1   force =     0.04410973    0.03024362   -0.03851129
     atom   21 type  1   force =    -0.04410980    0.03024403   -0.03851146
     atom   22 type  1   force =     0.04410982   -0.03024396   -0.03851139
     atom   23 type  1   force =    -0.04410982   -0.03024396   -0.03851139
     atom   24 type  1   force =     0.04410980    0.03024403   -0.03851146

     Total force =     0.370294     Total SCF correction =     0.000062


     Computing stress (Cartesian axis) and pressure

          total   stress  (Ry/bohr**3)                   (kbar)     P=      -32.50
  -0.00048933   0.00000000   0.00000000          -71.98        0.00        0.00
   0.00000000   0.00016967  -0.00000000            0.00       24.96       -0.00
   0.00000000  -0.00000000  -0.00034310            0.00       -0.00      -50.47

     Energy error            =      1.2E-01 Ry
     Gradient error          =      8.2E-02 Ry/Bohr

     number of scf cycles    =   2
     number of bfgs steps    =   1

     energy             old  =    -275.8272828103 Ry
     energy             new  =    -275.9443539990 Ry

     CASE: energy            _new < energy            _old

     new trust radius        =       0.0714372412 bohr
     new conv_thr            =       0.0000001000 Ry


ATOMIC_POSITIONS (crystal)
O                0.0000000000        0.6676128389        0.0566498174
O                0.0000000000        0.3323871614        0.5566498754
O                0.5000000000        0.1676130829        0.0566495813
O                0.5000000000        0.8323870540        0.5566497675
O                0.5000000000        0.8358931646        0.9291054062
O                0.5000000000        0.1641067755        0.4291054371
O                0.0000000000        0.3358932277        0.9291054044
O                0.0000000000        0.6641067408        0.4291053969
H                0.0000000000        0.6639198423        0.2044736453
H                0.0000000000        0.3360801396        0.7044736687
H                0.5000000000        0.1639199071        0.2044734934
H                0.5000000000        0.8360801025        0.7044736017
H                0.0000000000        0.5341631553        0.0166198043
H                0.0000000000        0.4658368107        0.5166198157
H                0.5000000000        0.0341634550        0.0166198029
H                0.5000000000        0.9658366712        0.5166198096
H                0.6937620509        0.7690982565        0.9855757175
H                0.3062379443        0.2309017104        0.4855757324
H                0.6937620557        0.2309017104        0.4855757324
H                0.3062379491        0.7690982565        0.9855757175
H                0.1937620534        0.2690982821        0.9855757072
H                0.8062379638        0.7309016863        0.4855757120
H                0.1937620362        0.7309016863        0.4855757120
H                0.8062379466        0.2690982821        0.9855757072



     Writing config-only to output data dir ./iceIh/iceIh.save/ :
     XML data file
     NEW-OLD atomic charge density approx. for the potential

     total cpu time spent up to now is      244.4 secs

     per-process dynamical memory:    60.5 Mb

     Self-consistent Calculation

     iteration #  1     ecut=    90.00 Ry     beta= 0.70
     Davidson diagonalization with overlap
     ethr =  1.00E-06,  avg # of iterations =  9.0

     total cpu time spent up to now is      267.2 secs

     total energy              =    -275.99991461 Ry
     estimated scf accuracy    <       0.01262432 Ry

     iteration #  2     ecut=    90.00 Ry     beta= 0.70
     Davidson diagonalization with overlap
     ethr =  1.97E-05,  avg # of iterations =  3.0

     total cpu time spent up to now is      277.0 secs

     total energy              =    -276.00250616 Ry
     estimated scf accuracy    <       0.00278840 Ry

     iteration #  3     ecut=    90.00 Ry     beta= 0.70
     Davidson diagonalization with overlap
     ethr =  4.36E-06,  avg # of iterations =  3.1

     total cpu time spent up to now is      286.6 secs

     total energy              =    -276.00319310 Ry
     estimated scf accuracy    <       0.00023783 Ry

     iteration #  4     ecut=    90.00 Ry     beta= 0.70
     Davidson diagonalization with overlap
     ethr =  3.72E-07,  avg # of iterations =  2.6

     total cpu time spent up to now is      295.3 secs

     total energy              =    -276.00323442 Ry
     estimated scf accuracy    <       0.00001384 Ry

     iteration #  5     ecut=    90.00 Ry     beta= 0.70
     Davidson diagonalization with overlap
     ethr =  2.16E-08,  avg # of iterations =  3.5

     total cpu time spent up to now is      305.6 secs

     total energy              =    -276.00323925 Ry
     estimated scf accuracy    <       0.00000166 Ry

     iteration #  6     ecut=    90.00 Ry     beta= 0.70
     Davidson diagonalization with overlap
     ethr =  2.60E-09,  avg # of iterations =  2.0

     total cpu time spent up to now is      313.4 secs

     total energy              =    -276.00323938 Ry
     estimated scf accuracy    <       0.00000017 Ry

     iteration #  7     ecut=    90.00 Ry     beta= 0.70
     Davidson diagonalization with overlap
     ethr =  2.61E-10,  avg # of iterations =  4.4

     total cpu time spent up to now is      325.3 secs

     total energy              =    -276.00323943 Ry
     estimated scf accuracy    <       0.00000013 Ry

     iteration #  8     ecut=    90.00 Ry     beta= 0.70
     Davidson diagonalization with overlap
     ethr =  2.02E-10,  avg # of iterations =  3.0

     total cpu time spent up to now is      334.6 secs

     End of self-consistent calculation

     Number of k-points >= 100: set verbosity='high' to print the bands.

     highest occupied level (ev):    -2.6515

!    total energy              =    -276.00323946 Ry
     estimated scf accuracy    <          1.4E-09 Ry

     The total energy is the sum of the following terms:
     one-electron contribution =    -218.81102519 Ry
     hartree contribution      =     131.65144688 Ry
     xc contribution           =     -67.62766351 Ry
     ewald contribution        =    -121.21599764 Ry

     convergence has been achieved in   8 iterations

     Forces acting on atoms (cartesian axes, Ry/au):

     atom    1 type  2   force =     0.00000000   -0.01785293    0.02001885
     atom    2 type  2   force =     0.00000000    0.01785268    0.02001844
     atom    3 type  2   force =     0.00000000   -0.01785289    0.02002033
     atom    4 type  2   force =     0.00000000    0.01785261    0.02001910
     atom    5 type  2   force =     0.00000000   -0.03042717    0.03761553
     atom    6 type  2   force =     0.00000000    0.03042738    0.03761526
     atom    7 type  2   force =     0.00000000   -0.03042745    0.03761569
     atom    8 type  2   force =     0.00000000    0.03042752    0.03761567
     atom    9 type  1   force =     0.00000000    0.00770507   -0.01506607
     atom   10 type  1   force =     0.00000000   -0.00770501   -0.01506578
     atom   11 type  1   force =     0.00000000    0.00770548   -0.01506647
     atom   12 type  1   force =     0.00000000   -0.00770520   -0.01506596
     atom   13 type  1   force =     0.00000000    0.01809648   -0.00752170
     atom   14 type  1   force =     0.00000000   -0.01809633   -0.00752166
     atom   15 type  1   force =     0.00000000    0.01809569   -0.00752228
     atom   16 type  1   force =     0.00000000   -0.01809596   -0.00752190
     atom   17 type  1   force =    -0.02347423    0.01220492   -0.01752334
     atom   18 type  1   force =     0.02347425   -0.01220495   -0.01752334
     atom   19 type  1   force =    -0.02347425   -0.01220495   -0.01752334
     atom   20 type  1   force =     0.02347423    0.01220492   -0.01752334
     atom   21 type  1   force =    -0.02347425    0.01220509   -0.01752345
     atom   22 type  1   force =     0.02347423   -0.01220503   -0.01752340
     atom   23 type  1   force =    -0.02347423   -0.01220503   -0.01752340
     atom   24 type  1   force =     0.02347425    0.01220509   -0.01752345

     Total force =     0.151589     Total SCF correction =     0.000082


     Computing stress (Cartesian axis) and pressure

          total   stress  (Ry/bohr**3)                   (kbar)     P=      -20.00
  -0.00020898   0.00000000   0.00000000          -30.74        0.00        0.00
   0.00000000  -0.00012504   0.00000000            0.00      -18.39        0.00
   0.00000000   0.00000000  -0.00007394            0.00        0.00      -10.88

     Energy error            =      5.9E-02 Ry
     Gradient error          =      3.8E-02 Ry/Bohr

     number of scf cycles    =   3
     number of bfgs steps    =   2

     energy             old  =    -275.9443539990 Ry
     energy             new  =    -276.0032394646 Ry

     CASE: energy            _new < energy            _old

     new trust radius        =       0.0709360298 bohr
     new conv_thr            =       0.0000001000 Ry


ATOMIC_POSITIONS (crystal)
O                0.0000000000        0.6660635619        0.0589680529
O                0.0000000000        0.3339364141        0.5589680652
O                0.5000000000        0.1660637969        0.0589679734
O                0.5000000000        0.8339363067        0.5589680268
O                0.5000000000        0.8326604383        0.9332208395
O                0.5000000000        0.1673395232        0.4332208405
O                0.0000000000        0.3326604717        0.9332208540
O                0.0000000000        0.6673395039        0.4332208447
H                0.0000000000        0.6646819031        0.2027745493
H                0.0000000000        0.3353180847        0.7027746049
H                0.5000000000        0.1646820092        0.2027743548
H                0.5000000000        0.8353180284        0.7027745186
H                0.0000000000        0.5357797074        0.0157647840
H                0.0000000000        0.4642202725        0.5157647995
H                0.5000000000        0.0357799367        0.0157647231
H                0.5000000000        0.9642201651        0.5157647697
H                0.6895200579        0.7703958358        0.9836359378
H                0.3104799419        0.2296041278        0.4836359531
H                0.6895200581        0.2296041278        0.4836359531
H                0.3104799421        0.7703958358        0.9836359378
H                0.1895200557        0.2703958786        0.9836359155
H                0.8104799573        0.7296040959        0.4836359263
H                0.1895200427        0.7296040959        0.4836359263
H                0.8104799443        0.2703958786        0.9836359155



     Writing config-only to output data dir ./iceIh/iceIh.save/ :
     XML data file
     NEW-OLD atomic charge density approx. for the potential

     total cpu time spent up to now is      343.0 secs

     per-process dynamical memory:    60.5 Mb

     Self-consistent Calculation

     iteration #  1     ecut=    90.00 Ry     beta= 0.70
     Davidson diagonalization with overlap
     ethr =  1.00E-06,  avg # of iterations =  8.8

     total cpu time spent up to now is      365.2 secs

     total energy              =    -276.01140716 Ry
     estimated scf accuracy    <       0.01136336 Ry

     iteration #  2     ecut=    90.00 Ry     beta= 0.70
     Davidson diagonalization with overlap
     ethr =  1.78E-05,  avg # of iterations =  3.0

     total cpu time spent up to now is      375.5 secs

     total energy              =    -276.01428741 Ry
     estimated scf accuracy    <       0.00343884 Ry

     iteration #  3     ecut=    90.00 Ry     beta= 0.70
     Davidson diagonalization with overlap
     ethr =  5.37E-06,  avg # of iterations =  2.0

     total cpu time spent up to now is      383.8 secs

     total energy              =    -276.01490927 Ry
     estimated scf accuracy    <       0.00011938 Ry

     iteration #  4     ecut=    90.00 Ry     beta= 0.70
     Davidson diagonalization with overlap
     ethr =  1.87E-07,  avg # of iterations =  3.0

     total cpu time spent up to now is      394.8 secs

     total energy              =    -276.01496266 Ry
     estimated scf accuracy    <       0.00006789 Ry

     iteration #  5     ecut=    90.00 Ry     beta= 0.70
     Davidson diagonalization with overlap
     ethr =  1.06E-07,  avg # of iterations =  2.0

     total cpu time spent up to now is      403.0 secs

     total energy              =    -276.01496857 Ry
     estimated scf accuracy    <       0.00000899 Ry

     iteration #  6     ecut=    90.00 Ry     beta= 0.70
     Davidson diagonalization with overlap
     ethr =  1.41E-08,  avg # of iterations =  3.0

     total cpu time spent up to now is      414.0 secs

     total energy              =    -276.01497141 Ry
     estimated scf accuracy    <       0.00000421 Ry

     iteration #  7     ecut=    90.00 Ry     beta= 0.70
     Davidson diagonalization with overlap
     ethr =  6.58E-09,  avg # of iterations =  2.0

     total cpu time spent up to now is      423.2 secs

     End of self-consistent calculation

     Number of k-points >= 100: set verbosity='high' to print the bands.

     highest occupied level (ev):    -2.7370

!    total energy              =    -276.01497220 Ry
     estimated scf accuracy    <       0.00000007 Ry

     The total energy is the sum of the following terms:
     one-electron contribution =    -222.20490212 Ry
     hartree contribution      =     133.18285434 Ry
     xc contribution           =     -67.96516031 Ry
     ewald contribution        =    -119.02776411 Ry

     convergence has been achieved in   7 iterations

     Forces acting on atoms (cartesian axes, Ry/au):

     atom    1 type  2   force =     0.00000000   -0.00270627   -0.00868502
     atom    2 type  2   force =     0.00000000    0.00270630   -0.00868460
     atom    3 type  2   force =     0.00000000   -0.00270681   -0.00868598
     atom    4 type  2   force =     0.00000000    0.00270650   -0.00868502
     atom    5 type  2   force =     0.00000000    0.02198148   -0.00863022
     atom    6 type  2   force =     0.00000000   -0.02198130   -0.00863022
     atom    7 type  2   force =     0.00000000    0.02198147   -0.00863047
     atom    8 type  2   force =     0.00000000   -0.02198144   -0.00863041
     atom    9 type  1   force =     0.00000000    0.00110202    0.00809148
     atom   10 type  1   force =     0.00000000   -0.00110203    0.00809107
     atom   11 type  1   force =     0.00000000    0.00110217    0.00809261
     atom   12 type  1   force =     0.00000000   -0.00110211    0.00809155
     atom   13 type  1   force =     0.00000000    0.00498206   -0.00192737
     atom   14 type  1   force =     0.00000000   -0.00498209   -0.00192738
     atom   15 type  1   force =     0.00000000    0.00498204   -0.00192747
     atom   16 type  1   force =     0.00000000   -0.00498204   -0.00192743
     atom   17 type  1   force =     0.00871953   -0.01281955    0.00557559
     atom   18 type  1   force =    -0.00871947    0.01281952    0.00557555
     atom   19 type  1   force =     0.00871947    0.01281952    0.00557555
     atom   20 type  1   force =    -0.00871953   -0.01281955    0.00557559
     atom   21 type  1   force =     0.00871967   -0.01281959    0.00557565
     atom   22 type  1   force =    -0.00871969    0.01281963    0.00557565
     atom   23 type  1   force =     0.00871969    0.01281963    0.00557565
     atom   24 type  1   force =    -0.00871967   -0.01281959    0.00557565

     Total force =     0.071514     Total SCF correction =     0.000411


     Computing stress (Cartesian axis) and pressure

          total   stress  (Ry/bohr**3)                   (kbar)     P=       20.74
   0.00015127   0.00000000   0.00000000           22.25        0.00        0.00
   0.00000000   0.00010032  -0.00000000            0.00       14.76       -0.00
   0.00000000  -0.00000000   0.00017139            0.00       -0.00       25.21

     Energy error            =      1.2E-02 Ry
     Gradient error          =      2.2E-02 Ry/Bohr

     number of scf cycles    =   4
     number of bfgs steps    =   3

     energy             old  =    -276.0032394646 Ry
     energy             new  =    -276.0149722016 Ry

     CASE: energy            _new < energy            _old

     new trust radius        =       0.0204053049 bohr
     new conv_thr            =       0.0000001000 Ry


ATOMIC_POSITIONS (crystal)
O                0.0000000000        0.6661732569        0.0584185857
O                0.0000000000        0.3338267234        0.5584186230
O                0.5000000000        0.1661734574        0.0584184413
O                0.5000000000        0.8338266299        0.5584185563
O                0.5000000000        0.8339448329        0.9325048488
O                0.5000000000        0.1660551366        0.4325048513
O                0.0000000000        0.3339448670        0.9325048480
O                0.0000000000        0.6660551096        0.4325048418
H                0.0000000000        0.6646836621        0.2033080017
H                0.0000000000        0.3353163245        0.7033080331
H                0.5000000000        0.1646837739        0.2033078719
H                0.5000000000        0.8353162653        0.7033079742
H                0.0000000000        0.5358105406        0.0156792744
H                0.0000000000        0.4641894360        0.5156792894
H                0.5000000000        0.0358107793        0.0156792137
H                0.5000000000        0.9641893262        0.5156792591
H                0.6905459231        0.7696683219        0.9840446971
H                0.3094540815        0.2303316406        0.4840447105
H                0.6905459185        0.2303316406        0.4840447105
H                0.3094540769        0.7696683219        0.9840446971
H                0.1905459335        0.2696683620        0.9840446790
H                0.8094540781        0.7303316146        0.4840446895
H                0.1905459219        0.7303316146        0.4840446895
H                0.8094540665        0.2696683620        0.9840446790



     Writing config-only to output data dir ./iceIh/iceIh.save/ :
     XML data file
     NEW-OLD atomic charge density approx. for the potential

     total cpu time spent up to now is      431.6 secs

     per-process dynamical memory:    60.5 Mb

     Self-consistent Calculation

     iteration #  1     ecut=    90.00 Ry     beta= 0.70
     Davidson diagonalization with overlap
     ethr =  1.00E-06,  avg # of iterations =  4.0

     total cpu time spent up to now is      445.4 secs

     total energy              =    -276.01687096 Ry
     estimated scf accuracy    <       0.00081952 Ry

     iteration #  2     ecut=    90.00 Ry     beta= 0.70
     Davidson diagonalization with overlap
     ethr =  1.28E-06,  avg # of iterations =  3.0

     total cpu time spent up to now is      455.6 secs

     total energy              =    -276.01706802 Ry
     estimated scf accuracy    <       0.00023716 Ry

     iteration #  3     ecut=    90.00 Ry     beta= 0.70
     Davidson diagonalization with overlap
     ethr =  3.71E-07,  avg # of iterations =  2.2

     total cpu time spent up to now is      464.6 secs

     total energy              =    -276.01711374 Ry
     estimated scf accuracy    <       0.00000829 Ry

     iteration #  4     ecut=    90.00 Ry     beta= 0.70
     Davidson diagonalization with overlap
     ethr =  1.29E-08,  avg # of iterations =  3.0

     total cpu time spent up to now is      475.5 secs

     total energy              =    -276.01711683 Ry
     estimated scf accuracy    <       0.00000463 Ry

     iteration #  5     ecut=    90.00 Ry     beta= 0.70
     Davidson diagonalization with overlap
     ethr =  7.24E-09,  avg # of iterations =  2.0

     total cpu time spent up to now is      483.9 secs

     total energy              =    -276.01711729 Ry
     estimated scf accuracy    <       0.00000055 Ry

     iteration #  6     ecut=    90.00 Ry     beta= 0.70
     Davidson diagonalization with overlap
     ethr =  8.55E-10,  avg # of iterations =  3.2

     total cpu time spent up to now is      495.0 secs

     total energy              =    -276.01711747 Ry
     estimated scf accuracy    <       0.00000027 Ry

     iteration #  7     ecut=    90.00 Ry     beta= 0.70
     Davidson diagonalization with overlap
     ethr =  4.24E-10,  avg # of iterations =  2.0

     total cpu time spent up to now is      503.9 secs

     End of self-consistent calculation

     Number of k-points >= 100: set verbosity='high' to print the bands.

     highest occupied level (ev):    -2.7242

!    total energy              =    -276.01711752 Ry
     estimated scf accuracy    <          3.8E-09 Ry

     The total energy is the sum of the following terms:
     one-electron contribution =    -221.33694118 Ry
     hartree contribution      =     132.79393665 Ry
     xc contribution           =     -67.87868648 Ry
     ewald contribution        =    -119.59542652 Ry

     convergence has been achieved in   7 iterations

     Forces acting on atoms (cartesian axes, Ry/au):

     atom    1 type  2   force =     0.00000000    0.00019214    0.00067384
     atom    2 type  2   force =     0.00000000   -0.00019213    0.00067370
     atom    3 type  2   force =     0.00000000    0.00019220    0.00067438
     atom    4 type  2   force =     0.00000000   -0.00019213    0.00067392
     atom    5 type  2   force =     0.00000000    0.00243991    0.00483230
     atom    6 type  2   force =     0.00000000   -0.00243987    0.00483215
     atom    7 type  2   force =     0.00000000    0.00243987    0.00483227
     atom    8 type  2   force =     0.00000000   -0.00243983    0.00483228
     atom    9 type  1   force =     0.00000000    0.00159402    0.00078318
     atom   10 type  1   force =     0.00000000   -0.00159401    0.00078324
     atom   11 type  1   force =     0.00000000    0.00159416    0.00078315
     atom   12 type  1   force =     0.00000000   -0.00159408    0.00078324
     atom   13 type  1   force =     0.00000000    0.00297864   -0.00337158
     atom   14 type  1   force =     0.00000000   -0.00297868   -0.00337156
     atom   15 type  1   force =     0.00000000    0.00297814   -0.00337183
     atom   16 type  1   force =     0.00000000   -0.00297848   -0.00337165
     atom   17 type  1   force =    -0.00251731   -0.00361231   -0.00145888
     atom   18 type  1   force =     0.00251729    0.00361234   -0.00145887
     atom   19 type  1   force =    -0.00251729    0.00361234   -0.00145887
     atom   20 type  1   force =     0.00251731   -0.00361231   -0.00145888
     atom   21 type  1   force =    -0.00251728   -0.00361229   -0.00145889
     atom   22 type  1   force =     0.00251727    0.00361233   -0.00145887
     atom   23 type  1   force =    -0.00251727    0.00361233   -0.00145887
     atom   24 type  1   force =     0.00251728   -0.00361229   -0.00145889

     Total force =     0.019618     Total SCF correction =     0.000106


     Computing stress (Cartesian axis) and pressure

          total   stress  (Ry/bohr**3)                   (kbar)     P=       10.01
   0.00003425   0.00000000   0.00000000            5.04        0.00        0.00
   0.00000000   0.00007036   0.00000000            0.00       10.35        0.00
   0.00000000   0.00000000   0.00009943            0.00        0.00       14.63

     Energy error            =      2.1E-03 Ry
     Gradient error          =      4.8E-03 Ry/Bohr

     number of scf cycles    =   5
     number of bfgs steps    =   4

     energy             old  =    -276.0149722016 Ry
     energy             new  =    -276.0171175188 Ry

     CASE: energy            _new < energy            _old

     new trust radius        =       0.0063112668 bohr
     new conv_thr            =       0.0000000215 Ry


ATOMIC_POSITIONS (crystal)
O                0.0000000000        0.6662032554        0.0584713002
O                0.0000000000        0.3337967259        0.5584713288
O                0.5000000000        0.1662034532        0.0584711909
O                0.5000000000        0.8337966351        0.5584712762
O                0.5000000000        0.8342124352        0.9328878086
O                0.5000000000        0.1657875393        0.4328877993
O                0.0000000000        0.3342124655        0.9328878036
O                0.0000000000        0.6657875148        0.4328877991
H                0.0000000000        0.6648191388        0.2033989543
H                0.0000000000        0.3351808485        0.7033989881
H                0.5000000000        0.1648192625        0.2033988307
H                0.5000000000        0.8351807833        0.7033989327
H                0.0000000000        0.5360411519        0.0153722484
H                0.0000000000        0.4639588221        0.5153722655
H                0.5000000000        0.0360413554        0.0153721673
H                0.5000000000        0.9639587262        0.5153722271
H                0.6902656597        0.7693360863        0.9839348960
H                0.3097343427        0.2306638777        0.4839349097
H                0.6902656573        0.2306638777        0.4839349097
H                0.3097343403        0.7693360863        0.9839348960
H                0.1902656762        0.2693361278        0.9839348773
H                0.8097343341        0.7306638517        0.4839348895
H                0.1902656659        0.7306638517        0.4839348895
H                0.8097343238        0.2693361278        0.9839348773



     Writing config-only to output data dir ./iceIh/iceIh.save/ :
     XML data file
     NEW-OLD atomic charge density approx. for the potential

     total cpu time spent up to now is      512.3 secs

     per-process dynamical memory:    60.5 Mb

     Self-consistent Calculation

     iteration #  1     ecut=    90.00 Ry     beta= 0.70
     Davidson diagonalization with overlap
     ethr =  1.00E-06,  avg # of iterations =  3.0

     Threshold (ethr) on eigenvalues was too large:
     Diagonalizing with lowered threshold

     Davidson diagonalization with overlap
     ethr =  3.32E-08,  avg # of iterations =  2.0

     total cpu time spent up to now is      530.4 secs

     total energy              =    -276.01750138 Ry
     estimated scf accuracy    <       0.00002391 Ry

     iteration #  2     ecut=    90.00 Ry     beta= 0.70
     Davidson diagonalization with overlap
     ethr =  3.74E-08,  avg # of iterations =  2.0

     total cpu time spent up to now is      538.6 secs

     total energy              =    -276.01750500 Ry
     estimated scf accuracy    <       0.00000102 Ry

     iteration #  3     ecut=    90.00 Ry     beta= 0.70
     Davidson diagonalization with overlap
     ethr =  1.59E-09,  avg # of iterations =  2.8

     total cpu time spent up to now is      548.1 secs

     total energy              =    -276.01750521 Ry
     estimated scf accuracy    <       0.00000025 Ry

     iteration #  4     ecut=    90.00 Ry     beta= 0.70
     Davidson diagonalization with overlap
     ethr =  3.90E-10,  avg # of iterations =  3.2

     total cpu time spent up to now is      557.7 secs

     total energy              =    -276.01750528 Ry
     estimated scf accuracy    <       0.00000003 Ry

     iteration #  5     ecut=    90.00 Ry     beta= 0.70
     Davidson diagonalization with overlap
     ethr =  4.52E-11,  avg # of iterations =  2.3

     total cpu time spent up to now is      566.0 secs

     End of self-consistent calculation

     Number of k-points >= 100: set verbosity='high' to print the bands.

     highest occupied level (ev):    -2.7277

!    total energy              =    -276.01750528 Ry
     estimated scf accuracy    <          1.9E-09 Ry

     The total energy is the sum of the following terms:
     one-electron contribution =    -221.35793024 Ry
     hartree contribution      =     132.80288936 Ry
     xc contribution           =     -67.88020823 Ry
     ewald contribution        =    -119.58225617 Ry

     convergence has been achieved in   5 iterations

     Forces acting on atoms (cartesian axes, Ry/au):

     atom    1 type  2   force =     0.00000000    0.00153236    0.00084342
     atom    2 type  2   force =     0.00000000   -0.00153240    0.00084343
     atom    3 type  2   force =     0.00000000    0.00153208    0.00084346
     atom    4 type  2   force =     0.00000000   -0.00153230    0.00084348
     atom    5 type  2   force =     0.00000000    0.00108027    0.00399075
     atom    6 type  2   force =     0.00000000   -0.00108018    0.00399069
     atom    7 type  2   force =     0.00000000    0.00108021    0.00399070
     atom    8 type  2   force =     0.00000000   -0.00108016    0.00399073
     atom    9 type  1   force =     0.00000000    0.00094390    0.00020998
     atom   10 type  1   force =     0.00000000   -0.00094389    0.00020995
     atom   11 type  1   force =     0.00000000    0.00094397    0.00021017
     atom   12 type  1   force =     0.00000000   -0.00094393    0.00021001
     atom   13 type  1   force =     0.00000000    0.00180339   -0.00262452
     atom   14 type  1   force =     0.00000000   -0.00180338   -0.00262452
     atom   15 type  1   force =     0.00000000    0.00180328   -0.00262457
     atom   16 type  1   force =     0.00000000   -0.00180330   -0.00262455
     atom   17 type  1   force =    -0.00189318   -0.00283180   -0.00120982
     atom   18 type  1   force =     0.00189319    0.00283181   -0.00120984
     atom   19 type  1   force =    -0.00189319    0.00283181   -0.00120984
     atom   20 type  1   force =     0.00189318   -0.00283180   -0.00120982
     atom   21 type  1   force =    -0.00189317   -0.00283179   -0.00120983
     atom   22 type  1   force =     0.00189317    0.00283182   -0.00120982
     atom   23 type  1   force =    -0.00189317    0.00283182   -0.00120982
     atom   24 type  1   force =     0.00189317   -0.00283179   -0.00120983

     Total force =     0.015147     Total SCF correction =     0.000109


     Computing stress (Cartesian axis) and pressure

          total   stress  (Ry/bohr**3)                   (kbar)     P=       10.11
   0.00003734   0.00000000   0.00000000            5.49        0.00        0.00
   0.00000000   0.00007607  -0.00000000            0.00       11.19       -0.00
   0.00000000  -0.00000000   0.00009277            0.00       -0.00       13.65

     Energy error            =      3.9E-04 Ry
     Gradient error          =      4.0E-03 Ry/Bohr

     number of scf cycles    =   6
     number of bfgs steps    =   5

     energy             old  =    -276.0171175188 Ry
     energy             new  =    -276.0175052796 Ry

     CASE: energy            _new < energy            _old

     new trust radius        =       0.0069423934 bohr
     new conv_thr            =       0.0000000039 Ry


ATOMIC_POSITIONS (crystal)
O                0.0000000000        0.6663364987        0.0585472929
O                0.0000000000        0.3336634789        0.5585473239
O                0.5000000000        0.1663366633        0.0585471859
O                0.5000000000        0.8336634008        0.5585472755
O                0.5000000000        0.8344540416        0.9333454935
O                0.5000000000        0.1655459446        0.4333454764
O                0.0000000000        0.3344540644        0.9333454813
O                0.0000000000        0.6655459212        0.4333454808
H                0.0000000000        0.6649481053        0.2034682589
H                0.0000000000        0.3350518826        0.7034682867
H                0.5000000000        0.1649482393        0.2034681641
H                0.5000000000        0.8350518122        0.7034682414
H                0.0000000000        0.5362835882        0.0150268136
H                0.0000000000        0.4637163869        0.5150268309
H                0.5000000000        0.0362837767        0.0150267231
H                0.5000000000        0.9637162998        0.5150267879
H                0.6899653501        0.7689489663        0.9838061222
H                0.3100346552        0.2310509984        0.4838061336
H                0.6899653448        0.2310509984        0.4838061336
H                0.3100346499        0.7689489663        0.9838061222
H                0.1899653712        0.2689490092        0.9838061029
H                0.8100346396        0.7310509739        0.4838061159
H                0.1899653604        0.7310509739        0.4838061159
H                0.8100346288        0.2689490092        0.9838061029



     Writing config-only to output data dir ./iceIh/iceIh.save/ :
     XML data file
     NEW-OLD atomic charge density approx. for the potential

     total cpu time spent up to now is      574.4 secs

     per-process dynamical memory:    60.5 Mb

     Self-consistent Calculation

     iteration #  1     ecut=    90.00 Ry     beta= 0.70
     Davidson diagonalization with overlap
     ethr =  1.00E-06,  avg # of iterations =  3.0

     Threshold (ethr) on eigenvalues was too large:
     Diagonalizing with lowered threshold

     Davidson diagonalization with overlap
     ethr =  4.33E-08,  avg # of iterations =  2.1

     total cpu time spent up to now is      592.7 secs

     total energy              =    -276.01782168 Ry
     estimated scf accuracy    <       0.00003125 Ry

     iteration #  2     ecut=    90.00 Ry     beta= 0.70
     Davidson diagonalization with overlap
     ethr =  4.88E-08,  avg # of iterations =  2.0

     total cpu time spent up to now is      600.4 secs

     total energy              =    -276.01782596 Ry
     estimated scf accuracy    <       0.00000119 Ry

     iteration #  3     ecut=    90.00 Ry     beta= 0.70
     Davidson diagonalization with overlap
     ethr =  1.86E-09,  avg # of iterations =  3.0

     total cpu time spent up to now is      610.0 secs

     total energy              =    -276.01782626 Ry
     estimated scf accuracy    <       0.00000022 Ry

     iteration #  4     ecut=    90.00 Ry     beta= 0.70
     Davidson diagonalization with overlap
     ethr =  3.50E-10,  avg # of iterations =  3.0

     total cpu time spent up to now is      619.7 secs

     total energy              =    -276.01782632 Ry
     estimated scf accuracy    <       0.00000004 Ry

     iteration #  5     ecut=    90.00 Ry     beta= 0.70
     Davidson diagonalization with overlap
     ethr =  6.90E-11,  avg # of iterations =  2.0

     total cpu time spent up to now is      628.2 secs

     End of self-consistent calculation

     Number of k-points >= 100: set verbosity='high' to print the bands.

     highest occupied level (ev):    -2.7312

!    total energy              =    -276.01782633 Ry
     estimated scf accuracy    <          2.8E-09 Ry

     The total energy is the sum of the following terms:
     one-electron contribution =    -221.37508876 Ry
     hartree contribution      =     132.81059206 Ry
     xc contribution           =     -67.88146066 Ry
     ewald contribution        =    -119.57186897 Ry

     convergence has been achieved in   5 iterations

     Forces acting on atoms (cartesian axes, Ry/au):

     atom    1 type  2   force =     0.00000000    0.00164052    0.00034236
     atom    2 type  2   force =     0.00000000   -0.00164049    0.00034227
     atom    3 type  2   force =     0.00000000    0.00164050    0.00034263
     atom    4 type  2   force =     0.00000000   -0.00164044    0.00034235
     atom    5 type  2   force =     0.00000000    0.00006414    0.00287483
     atom    6 type  2   force =     0.00000000   -0.00006414    0.00287475
     atom    7 type  2   force =     0.00000000    0.00006414    0.00287481
     atom    8 type  2   force =     0.00000000   -0.00006413    0.00287481
     atom    9 type  1   force =     0.00000000    0.00038715   -0.00004318
     atom   10 type  1   force =     0.00000000   -0.00038715   -0.00004314
     atom   11 type  1   force =     0.00000000    0.00038715   -0.00004323
     atom   12 type  1   force =     0.00000000   -0.00038715   -0.00004313
     atom   13 type  1   force =     0.00000000    0.00147702   -0.00158239
     atom   14 type  1   force =     0.00000000   -0.00147705   -0.00158238
     atom   15 type  1   force =     0.00000000    0.00147677   -0.00158242
     atom   16 type  1   force =     0.00000000   -0.00147697   -0.00158238
     atom   17 type  1   force =    -0.00107851   -0.00205531   -0.00079582
     atom   18 type  1   force =     0.00107848    0.00205535   -0.00079582
     atom   19 type  1   force =    -0.00107848    0.00205535   -0.00079582
     atom   20 type  1   force =     0.00107851   -0.00205531   -0.00079582
     atom   21 type  1   force =    -0.00107850   -0.00205532   -0.00079583
     atom   22 type  1   force =     0.00107850    0.00205535   -0.00079581
     atom   23 type  1   force =    -0.00107850    0.00205535   -0.00079581
     atom   24 type  1   force =     0.00107850   -0.00205532   -0.00079583

     Total force =     0.010575     Total SCF correction =     0.000143


     Computing stress (Cartesian axis) and pressure

          total   stress  (Ry/bohr**3)                   (kbar)     P=       10.24
   0.00004373   0.00000000   0.00000000            6.43        0.00        0.00
   0.00000000   0.00007692  -0.00000000            0.00       11.32       -0.00
   0.00000000  -0.00000000   0.00008811            0.00       -0.00       12.96

     Energy error            =      3.2E-04 Ry
     Gradient error          =      2.9E-03 Ry/Bohr

     number of scf cycles    =   7
     number of bfgs steps    =   6

     energy             old  =    -276.0175052796 Ry
     energy             new  =    -276.0178263266 Ry

     CASE: energy            _new < energy            _old

     new trust radius        =       0.0104135901 bohr
     new conv_thr            =       0.0000000032 Ry


ATOMIC_POSITIONS (crystal)
O                0.0000000000        0.6666179033        0.0586196993
O                0.0000000000        0.3333820768        0.5586197174
O                0.5000000000        0.1666180460        0.0586196383
O                0.5000000000        0.8333820148        0.5586196847
O                0.5000000000        0.8347313790        0.9340755274
O                0.5000000000        0.1652686144        0.4340754913
O                0.0000000000        0.3347313975        0.9340755058
O                0.0000000000        0.6652685935        0.4340755086
H                0.0000000000        0.6651099537        0.2035488765
H                0.0000000000        0.3348900348        0.7035489071
H                0.5000000000        0.1651100951        0.2035487953
H                0.5000000000        0.8348899604        0.7035488711
H                0.0000000000        0.5367065459        0.0145288512
H                0.0000000000        0.4632934241        0.5145288712
H                0.5000000000        0.0367066837        0.0145287463
H                0.5000000000        0.9632933552        0.5145288233
H                0.6895594688        0.7683305865        0.9836135726
H                0.3104405304        0.2316693846        0.4836135829
H                0.6895594696        0.2316693846        0.4836135829
H                0.3104405312        0.7683305865        0.9836135726
H                0.1895594970        0.2683306280        0.9836135519
H                0.8104405115        0.7316693618        0.4836135681
H                0.1895594885        0.7316693618        0.4836135681
H                0.8104405030        0.2683306280        0.9836135519



     Writing config-only to output data dir ./iceIh/iceIh.save/ :
     XML data file
     NEW-OLD atomic charge density approx. for the potential

     total cpu time spent up to now is      636.7 secs

     per-process dynamical memory:    60.5 Mb

     Self-consistent Calculation

     iteration #  1     ecut=    90.00 Ry     beta= 0.70
     Davidson diagonalization with overlap
     ethr =  1.00E-06,  avg # of iterations =  3.9

     total cpu time spent up to now is      649.1 secs

     total energy              =    -276.01808372 Ry
     estimated scf accuracy    <       0.00007236 Ry

     iteration #  2     ecut=    90.00 Ry     beta= 0.70
     Davidson diagonalization with overlap
     ethr =  1.13E-07,  avg # of iterations =  2.0

     total cpu time spent up to now is      657.5 secs

     total energy              =    -276.01809481 Ry
     estimated scf accuracy    <       0.00000710 Ry

     iteration #  3     ecut=    90.00 Ry     beta= 0.70
     Davidson diagonalization with overlap
     ethr =  1.11E-08,  avg # of iterations =  3.0

     total cpu time spent up to now is      667.6 secs

     total energy              =    -276.01809660 Ry
     estimated scf accuracy    <       0.00000287 Ry

     iteration #  4     ecut=    90.00 Ry     beta= 0.70
     Davidson diagonalization with overlap
     ethr =  4.48E-09,  avg # of iterations =  2.6

     total cpu time spent up to now is      676.0 secs

     total energy              =    -276.01809713 Ry
     estimated scf accuracy    <       0.00000007 Ry

     iteration #  5     ecut=    90.00 Ry     beta= 0.70
     Davidson diagonalization with overlap
     ethr =  1.17E-10,  avg # of iterations =  5.3

     total cpu time spent up to now is      689.6 secs

     total energy              =    -276.01809716 Ry
     estimated scf accuracy    <       0.00000016 Ry

     iteration #  6     ecut=    90.00 Ry     beta= 0.70
     Davidson diagonalization with overlap
     ethr =  1.17E-10,  avg # of iterations =  3.0

     total cpu time spent up to now is      699.3 secs

     total energy              =    -276.01809718 Ry
     estimated scf accuracy    <          4.0E-09 Ry

     iteration #  7     ecut=    90.00 Ry     beta= 0.70
     Davidson diagonalization with overlap
     ethr =  6.23E-12,  avg # of iterations =  5.0

     total cpu time spent up to now is      712.4 secs

     total energy              =    -276.01809719 Ry
     estimated scf accuracy    <          6.8E-09 Ry

     iteration #  8     ecut=    90.00 Ry     beta= 0.70
     Davidson diagonalization with overlap
     ethr =  6.23E-12,  avg # of iterations =  2.0

     total cpu time spent up to now is      720.0 secs

     End of self-consistent calculation

     Number of k-points >= 100: set verbosity='high' to print the bands.

     highest occupied level (ev):    -2.7367

!    total energy              =    -276.01809718 Ry
     estimated scf accuracy    <          1.7E-09 Ry

     The total energy is the sum of the following terms:
     one-electron contribution =    -221.39664814 Ry
     hartree contribution      =     132.82079107 Ry
     xc contribution           =     -67.88315929 Ry
     ewald contribution        =    -119.55908082 Ry

     convergence has been achieved in   8 iterations

     Forces acting on atoms (cartesian axes, Ry/au):

     atom    1 type  2   force =     0.00000000    0.00132929   -0.00008137
     atom    2 type  2   force =     0.00000000   -0.00132936   -0.00008125
     atom    3 type  2   force =     0.00000000    0.00132899   -0.00008165
     atom    4 type  2   force =     0.00000000   -0.00132931   -0.00008127
     atom    5 type  2   force =     0.00000000   -0.00107544    0.00100265
     atom    6 type  2   force =     0.00000000    0.00107554    0.00100272
     atom    7 type  2   force =     0.00000000   -0.00107549    0.00100265
     atom    8 type  2   force =     0.00000000    0.00107552    0.00100270
     atom    9 type  1   force =     0.00000000   -0.00022556   -0.00052079
     atom   10 type  1   force =     0.00000000    0.00022556   -0.00052088
     atom   11 type  1   force =     0.00000000   -0.00022565   -0.00052059
     atom   12 type  1   force =     0.00000000    0.00022561   -0.00052086
     atom   13 type  1   force =     0.00000000    0.00107194   -0.00015203
     atom   14 type  1   force =     0.00000000   -0.00107188   -0.00015206
     atom   15 type  1   force =     0.00000000    0.00107207   -0.00015185
     atom   16 type  1   force =     0.00000000   -0.00107185   -0.00015201
     atom   17 type  1   force =     0.00009778   -0.00093583   -0.00012424
     atom   18 type  1   force =    -0.00009773    0.00093582   -0.00012429
     atom   19 type  1   force =     0.00009773    0.00093582   -0.00012429
     atom   20 type  1   force =    -0.00009778   -0.00093583   -0.00012424
     atom   21 type  1   force =     0.00009774   -0.00093583   -0.00012426
     atom   22 type  1   force =    -0.00009772    0.00093585   -0.00012427
     atom   23 type  1   force =     0.00009772    0.00093585   -0.00012427
     atom   24 type  1   force =    -0.00009774   -0.00093583   -0.00012426

     Total force =     0.005378     Total SCF correction =     0.000056


     Computing stress (Cartesian axis) and pressure

          total   stress  (Ry/bohr**3)                   (kbar)     P=       10.50
   0.00005583   0.00000000   0.00000000            8.21        0.00        0.00
   0.00000000   0.00007798  -0.00000000            0.00       11.47       -0.00
   0.00000000  -0.00000000   0.00008033            0.00       -0.00       11.82

     Energy error            =      2.7E-04 Ry
     Gradient error          =      1.3E-03 Ry/Bohr

     number of scf cycles    =   8
     number of bfgs steps    =   7

     energy             old  =    -276.0178263266 Ry
     energy             new  =    -276.0180971842 Ry

     CASE: energy            _new < energy            _old

     new trust radius        =       0.0052762060 bohr
     new conv_thr            =       0.0000000027 Ry


ATOMIC_POSITIONS (crystal)
O                0.0000000000        0.6668356467        0.0586342022
O                0.0000000000        0.3331643263        0.5586342304
O                0.5000000000        0.1668357486        0.0586341258
O                0.5000000000        0.8331642757        0.5586342014
O                0.5000000000        0.8347727620        0.9344707122
O                0.5000000000        0.1652272456        0.4344706769
O                0.0000000000        0.3347727737        0.9344706873
O                0.0000000000        0.6652272236        0.4344706964
H                0.0000000000        0.6651627982        0.2035390825
H                0.0000000000        0.3348371902        0.7035391024
H                0.5000000000        0.1651629349        0.2035390321
H                0.5000000000        0.8348371185        0.7035390738
H                0.0000000000        0.5369998878        0.0143034771
H                0.0000000000        0.4630000869        0.5143034945
H                0.5000000000        0.0370000196        0.0143033845
H                0.5000000000        0.9630000286        0.5143034491
H                0.6894210067        0.7679735926        0.9835263109
H                0.3105789998        0.2320263803        0.4835263152
H                0.6894210002        0.2320263803        0.4835263152
H                0.3105789933        0.7679735926        0.9835263109
H                0.1894210317        0.2679736331        0.9835262884
H                0.8105789796        0.7320263606        0.4835263042
H                0.1894210204        0.7320263606        0.4835263042
H                0.8105789683        0.2679736331        0.9835262884



     Writing config-only to output data dir ./iceIh/iceIh.save/ :
     XML data file
     NEW-OLD atomic charge density approx. for the potential

     total cpu time spent up to now is      728.6 secs

     per-process dynamical memory:    60.5 Mb

     Self-consistent Calculation

     iteration #  1     ecut=    90.00 Ry     beta= 0.70
     Davidson diagonalization with overlap
     ethr =  1.00E-06,  avg # of iterations =  3.0

     Threshold (ethr) on eigenvalues was too large:
     Diagonalizing with lowered threshold

     Davidson diagonalization with overlap
     ethr =  3.54E-08,  avg # of iterations =  2.4

     total cpu time spent up to now is      747.5 secs

     total energy              =    -276.01814855 Ry
     estimated scf accuracy    <       0.00002660 Ry

     iteration #  2     ecut=    90.00 Ry     beta= 0.70
     Davidson diagonalization with overlap
     ethr =  4.16E-08,  avg # of iterations =  2.0

     total cpu time spent up to now is      756.1 secs

     total energy              =    -276.01815239 Ry
     estimated scf accuracy    <       0.00000445 Ry

     iteration #  3     ecut=    90.00 Ry     beta= 0.70
     Davidson diagonalization with overlap
     ethr =  6.96E-09,  avg # of iterations =  3.0

     total cpu time spent up to now is      766.0 secs

     total energy              =    -276.01815367 Ry
     estimated scf accuracy    <       0.00000091 Ry

     iteration #  4     ecut=    90.00 Ry     beta= 0.70
     Davidson diagonalization with overlap
     ethr =  1.43E-09,  avg # of iterations =  2.1

     total cpu time spent up to now is      773.8 secs

     total energy              =    -276.01815378 Ry
     estimated scf accuracy    <       0.00000004 Ry

     iteration #  5     ecut=    90.00 Ry     beta= 0.70
     Davidson diagonalization with overlap
     ethr =  6.49E-11,  avg # of iterations =  5.0

     total cpu time spent up to now is      786.7 secs

     total energy              =    -276.01815379 Ry
     estimated scf accuracy    <       0.00000008 Ry

     iteration #  6     ecut=    90.00 Ry     beta= 0.70
     Davidson diagonalization with overlap
     ethr =  6.49E-11,  avg # of iterations =  3.0

     total cpu time spent up to now is      796.6 secs

     End of self-consistent calculation

     Number of k-points >= 100: set verbosity='high' to print the bands.

     highest occupied level (ev):    -2.7403

!    total energy              =    -276.01815381 Ry
     estimated scf accuracy    <          6.7E-10 Ry

     The total energy is the sum of the following terms:
     one-electron contribution =    -221.41246642 Ry
     hartree contribution      =     132.82800702 Ry
     xc contribution           =     -67.88456968 Ry
     ewald contribution        =    -119.54912473 Ry

     convergence has been achieved in   6 iterations

     Forces acting on atoms (cartesian axes, Ry/au):

     atom    1 type  2   force =     0.00000000    0.00087217   -0.00037800
     atom    2 type  2   force =     0.00000000   -0.00087210   -0.00037815
     atom    3 type  2   force =     0.00000000    0.00087235   -0.00037774
     atom    4 type  2   force =     0.00000000   -0.00087206   -0.00037816
     atom    5 type  2   force =     0.00000000   -0.00137261   -0.00004683
     atom    6 type  2   force =     0.00000000    0.00137251   -0.00004689
     atom    7 type  2   force =     0.00000000   -0.00137254   -0.00004682
     atom    8 type  2   force =     0.00000000    0.00137251   -0.00004685
     atom    9 type  1   force =     0.00000000   -0.00032493   -0.00043142
     atom   10 type  1   force =     0.00000000    0.00032493   -0.00043132
     atom   11 type  1   force =     0.00000000   -0.00032505   -0.00043161
     atom   12 type  1   force =     0.00000000    0.00032499   -0.00043132
     atom   13 type  1   force =     0.00000000    0.00075274    0.00039206
     atom   14 type  1   force =     0.00000000   -0.00075280    0.00039208
     atom   15 type  1   force =     0.00000000    0.00075252    0.00039213
     atom   16 type  1   force =     0.00000000   -0.00075279    0.00039214
     atom   17 type  1   force =     0.00053269   -0.00038214    0.00023208
     atom   18 type  1   force =    -0.00053275    0.00038221    0.00023209
     atom   19 type  1   force =     0.00053275    0.00038221    0.00023209
     atom   20 type  1   force =    -0.00053269   -0.00038214    0.00023208
     atom   21 type  1   force =     0.00053268   -0.00038219    0.00023208
     atom   22 type  1   force =    -0.00053271    0.00038221    0.00023210
     atom   23 type  1   force =     0.00053271    0.00038221    0.00023210
     atom   24 type  1   force =    -0.00053268   -0.00038219    0.00023208

     Total force =     0.004368     Total SCF correction =     0.000055


     Computing stress (Cartesian axis) and pressure

          total   stress  (Ry/bohr**3)                   (kbar)     P=       10.70
   0.00006281   0.00000000   0.00000000            9.24        0.00        0.00
   0.00000000   0.00007801   0.00000000            0.00       11.48        0.00
   0.00000000   0.00000000   0.00007737            0.00        0.00       11.38

     Energy error            =      5.7E-05 Ry
     Gradient error          =      1.4E-03 Ry/Bohr

     number of scf cycles    =   9
     number of bfgs steps    =   8

     energy             old  =    -276.0180971842 Ry
     energy             new  =    -276.0181538084 Ry

     CASE: energy            _new < energy            _old

     new trust radius        =       0.0023818321 bohr
     new conv_thr            =       0.0000000010 Ry


ATOMIC_POSITIONS (crystal)
O                0.0000000000        0.6669699720        0.0586029624
O                0.0000000000        0.3330300063        0.5586029772
O                0.5000000000        0.1669700807        0.0586029123
O                0.5000000000        0.8330299621        0.5586029504
O                0.5000000000        0.8346770982        0.9345969616
O                0.5000000000        0.1653229034        0.4345969195
O                0.0000000000        0.3346771151        0.9345969371
O                0.0000000000        0.6653228815        0.4345969446
H                0.0000000000        0.6651569857        0.2035019177
H                0.0000000000        0.3348430022        0.7035019452
H                0.5000000000        0.1651571111        0.2035018557
H                0.5000000000        0.8348429366        0.7035019191
H                0.0000000000        0.5371644972        0.0142616168
H                0.0000000000        0.4628354727        0.5142616356
H                0.5000000000        0.0371646037        0.0142615325
H                0.5000000000        0.9628354190        0.5142615960
H                0.6894472086        0.7678225151        0.9835183164
H                0.3105527897        0.2321774644        0.4835183204
H                0.6894472103        0.2321774644        0.4835183204
H                0.3105527914        0.7678225151        0.9835183164
H                0.1894472332        0.2678225510        0.9835182931
H                0.8105527753        0.7321774457        0.4835183112
H                0.1894472247        0.7321774457        0.4835183112
H                0.8105527668        0.2678225510        0.9835182931



     Writing config-only to output data dir ./iceIh/iceIh.save/ :
     XML data file
     NEW-OLD atomic charge density approx. for the potential

     total cpu time spent up to now is      805.1 secs

     per-process dynamical memory:    60.5 Mb

     Self-consistent Calculation

     iteration #  1     ecut=    90.00 Ry     beta= 0.70
     Davidson diagonalization with overlap
     ethr =  1.00E-06,  avg # of iterations =  2.0

     Threshold (ethr) on eigenvalues was too large:
     Diagonalizing with lowered threshold

     Davidson diagonalization with overlap
     ethr =  9.02E-09,  avg # of iterations =  3.0

     total cpu time spent up to now is      824.0 secs

     total energy              =    -276.01817398 Ry
     estimated scf accuracy    <       0.00000743 Ry

     iteration #  2     ecut=    90.00 Ry     beta= 0.70
     Davidson diagonalization with overlap
     ethr =  1.16E-08,  avg # of iterations =  3.0

     total cpu time spent up to now is      834.2 secs

     total energy              =    -276.01817518 Ry
     estimated scf accuracy    <       0.00000415 Ry

     iteration #  3     ecut=    90.00 Ry     beta= 0.70
     Davidson diagonalization with overlap
     ethr =  6.48E-09,  avg # of iterations =  3.0

     total cpu time spent up to now is      843.5 secs

     total energy              =    -276.01817620 Ry
     estimated scf accuracy    <       0.00000009 Ry

     iteration #  4     ecut=    90.00 Ry     beta= 0.70
     Davidson diagonalization with overlap
     ethr =  1.45E-10,  avg # of iterations =  4.0

     total cpu time spent up to now is      854.1 secs

     total energy              =    -276.01817621 Ry
     estimated scf accuracy    <       0.00000006 Ry

     iteration #  5     ecut=    90.00 Ry     beta= 0.70
     Davidson diagonalization with overlap
     ethr =  9.63E-11,  avg # of iterations =  3.9

     total cpu time spent up to now is      864.9 secs

     total energy              =    -276.01817623 Ry
     estimated scf accuracy    <       0.00000003 Ry

     iteration #  6     ecut=    90.00 Ry     beta= 0.70
     Davidson diagonalization with overlap
     ethr =  3.92E-11,  avg # of iterations =  2.1

     total cpu time spent up to now is      872.7 secs

     total energy              =    -276.01817624 Ry
     estimated scf accuracy    <          2.2E-09 Ry

     iteration #  7     ecut=    90.00 Ry     beta= 0.70
     Davidson diagonalization with overlap
     ethr =  3.43E-12,  avg # of iterations =  4.5

     total cpu time spent up to now is      883.6 secs

     End of self-consistent calculation

     Number of k-points >= 100: set verbosity='high' to print the bands.

     highest occupied level (ev):    -2.7421

!    total energy              =    -276.01817624 Ry
     estimated scf accuracy    <          2.1E-10 Ry

     The total energy is the sum of the following terms:
     one-electron contribution =    -221.41921797 Ry
     hartree contribution      =     132.83100279 Ry
     xc contribution           =     -67.88522968 Ry
     ewald contribution        =    -119.54473137 Ry

     convergence has been achieved in   7 iterations

     Forces acting on atoms (cartesian axes, Ry/au):

     atom    1 type  2   force =     0.00000000    0.00051319   -0.00025106
     atom    2 type  2   force =     0.00000000   -0.00051324   -0.00025094
     atom    3 type  2   force =     0.00000000    0.00051300   -0.00025127
     atom    4 type  2   force =     0.00000000   -0.00051323   -0.00025091
     atom    5 type  2   force =     0.00000000   -0.00113057   -0.00045182
     atom    6 type  2   force =     0.00000000    0.00113064   -0.00045174
     atom    7 type  2   force =     0.00000000   -0.00113059   -0.00045180
     atom    8 type  2   force =     0.00000000    0.00113062   -0.00045177
     atom    9 type  1   force =     0.00000000   -0.00015210   -0.00029793
     atom   10 type  1   force =     0.00000000    0.00015210   -0.00029803
     atom   11 type  1   force =     0.00000000   -0.00015220   -0.00029781
     atom   12 type  1   force =     0.00000000    0.00015215   -0.00029804
     atom   13 type  1   force =     0.00000000    0.00048115    0.00034392
     atom   14 type  1   force =     0.00000000   -0.00048110    0.00034389
     atom   15 type  1   force =     0.00000000    0.00048125    0.00034407
     atom   16 type  1   force =     0.00000000   -0.00048105    0.00034393
     atom   17 type  1   force =     0.00050900   -0.00024275    0.00032843
[...]
     atom   10 type  1   force =     0.00000000   -0.00023856    0.00020636
     atom   11 type  1   force =     0.00000000    0.00023850    0.00019563
     atom   12 type  1   force =     0.00000000   -0.00023877    0.00021024
     atom   13 type  1   force =     0.00000000   -0.00003356   -0.00029862
     atom   14 type  1   force =     0.00000000    0.00002932   -0.00029682
     atom   15 type  1   force =     0.00000000   -0.00003822   -0.00030013
     atom   16 type  1   force =     0.00000000    0.00002510   -0.00029548
     atom   17 type  1   force =    -0.00023705   -0.00005776   -0.00015848
     atom   18 type  1   force =     0.00023431    0.00005945   -0.00015695
     atom   19 type  1   force =    -0.00023431    0.00005945   -0.00015695
     atom   20 type  1   force =     0.00023705   -0.00005776   -0.00015848
     atom   21 type  1   force =    -0.00023625   -0.00005838   -0.00015827
     atom   22 type  1   force =     0.00023512    0.00005877   -0.00015719
     atom   23 type  1   force =    -0.00023512    0.00005877   -0.00015719
     atom   24 type  1   force =     0.00023625   -0.00005838   -0.00015827

     Total force =     0.001360     Total SCF correction =     0.000013


     Computing stress (Cartesian axis) and pressure

          total   stress  (Ry/bohr**3)                   (kbar)     P=       10.53
   0.00006886   0.00000000   0.00000000           10.13        0.00        0.00
   0.00000000   0.00007351   0.00000001            0.00       10.81        0.00
   0.00000000   0.00000001   0.00007228            0.00        0.00       10.63

     Energy error            =      1.1E-05 Ry
     Gradient error          =      3.0E-04 Ry/Bohr

     number of scf cycles    =  31
     number of bfgs steps    =  30

     energy             old  =    -276.0182868601 Ry
     energy             new  =    -276.0182977092 Ry

     CASE: energy            _new < energy            _old

     new trust radius        =       0.0046235827 bohr
     new conv_thr            =       0.0000000010 Ry


ATOMIC_POSITIONS (crystal)
O                0.0000000000        0.6629352429        0.0584401970
O                0.0000000000        0.3370649716        0.5584395979
O                0.5000000000        0.1629355728        0.0584405505
O                0.5000000000        0.8370652053        0.5584392869
O                0.5000000000        0.8297477651        0.9343645290
O                0.5000000000        0.1702519989        0.4343644305
O                0.0000000000        0.3297477739        0.9343645292
O                0.0000000000        0.6702521676        0.4343644537
H                0.0000000000        0.6635832582        0.2033437376
H                0.0000000000        0.3364167621        0.7033440404
H                0.5000000000        0.1635831734        0.2033434892
H                0.5000000000        0.8364167692        0.7033443244
H                0.0000000000        0.5327557878        0.0157693875
H                0.0000000000        0.4672438989        0.5157693439
H                0.5000000000        0.0327556271        0.0157692074
H                0.5000000000        0.9672436008        0.5157694487
H                0.6896557822        0.7628522156        0.9830410781
H                0.3103439280        0.2371479217        0.4830412575
H                0.6896560720        0.2371479217        0.4830412575
H                0.3103442178        0.7628522156        0.9830410781
H                0.1896558647        0.2628521277        0.9830411776
H                0.8103439947        0.7371479472        0.4830412429
H                0.1896560053        0.7371479472        0.4830412429
H                0.8103441353        0.2628521277        0.9830411776



     Writing config-only to output data dir ./iceIh/iceIh.save/ :
     XML data file
     NEW-OLD atomic charge density approx. for the potential

     total cpu time spent up to now is     2402.3 secs

     per-process dynamical memory:    60.5 Mb

     Self-consistent Calculation

     iteration #  1     ecut=    90.00 Ry     beta= 0.70
     Davidson diagonalization with overlap
     ethr =  1.00E-06,  avg # of iterations =  3.0

     Threshold (ethr) on eigenvalues was too large:
     Diagonalizing with lowered threshold

     Davidson diagonalization with overlap
     ethr =  1.62E-08,  avg # of iterations =  3.0

     total cpu time spent up to now is     2423.1 secs

     total energy              =    -276.01829813 Ry
     estimated scf accuracy    <       0.00001307 Ry

     iteration #  2     ecut=    90.00 Ry     beta= 0.70
     Davidson diagonalization with overlap
     ethr =  2.04E-08,  avg # of iterations =  2.0

     total cpu time spent up to now is     2430.5 secs

     total energy              =    -276.01829990 Ry
     estimated scf accuracy    <       0.00000061 Ry

     iteration #  3     ecut=    90.00 Ry     beta= 0.70
     Davidson diagonalization with overlap
     ethr =  9.47E-10,  avg # of iterations =  3.1

     total cpu time spent up to now is     2440.3 secs

     total energy              =    -276.01830006 Ry
     estimated scf accuracy    <       0.00000005 Ry

     iteration #  4     ecut=    90.00 Ry     beta= 0.70
     Davidson diagonalization with overlap
     ethr =  8.05E-11,  avg # of iterations =  3.0

     total cpu time spent up to now is     2450.5 secs

     total energy              =    -276.01830007 Ry
     estimated scf accuracy    <       0.00000002 Ry

     iteration #  5     ecut=    90.00 Ry     beta= 0.70
     Davidson diagonalization with overlap
     ethr =  2.53E-11,  avg # of iterations =  3.0

     total cpu time spent up to now is     2459.5 secs

     End of self-consistent calculation

     Number of k-points >= 100: set verbosity='high' to print the bands.

     highest occupied level (ev):    -2.7481

!    total energy              =    -276.01830007 Ry
     estimated scf accuracy    <          5.8E-10 Ry

     The total energy is the sum of the following terms:
     one-electron contribution =    -221.35277992 Ry
     hartree contribution      =     132.79703955 Ry
     xc contribution           =     -67.88374664 Ry
     ewald contribution        =    -119.57881306 Ry

     convergence has been achieved in   5 iterations

     Forces acting on atoms (cartesian axes, Ry/au):

     atom    1 type  2   force =     0.00000000   -0.00005348    0.00010119
     atom    2 type  2   force =     0.00000000    0.00004754    0.00011314
     atom    3 type  2   force =     0.00000000   -0.00006031    0.00009329
     atom    4 type  2   force =     0.00000000    0.00004088    0.00012100
     atom    5 type  2   force =     0.00000000    0.00005153    0.00008904
     atom    6 type  2   force =     0.00000000   -0.00004514    0.00009409
     atom    7 type  2   force =     0.00000000    0.00004960    0.00009025
     atom    8 type  2   force =     0.00000000   -0.00004714    0.00009285
     atom    9 type  1   force =     0.00000000    0.00012163    0.00015227
     atom   10 type  1   force =     0.00000000   -0.00012163    0.00014388
     atom   11 type  1   force =     0.00000000    0.00012187    0.00015755
     atom   12 type  1   force =     0.00000000   -0.00012151    0.00013869
     atom   13 type  1   force =     0.00000000    0.00000589   -0.00013691
     atom   14 type  1   force =     0.00000000   -0.00000044   -0.00013890
     atom   15 type  1   force =     0.00000000    0.00001151   -0.00013503
     atom   16 type  1   force =     0.00000000    0.00000525   -0.00014077
     atom   17 type  1   force =    -0.00010743   -0.00002606   -0.00010345
     atom   18 type  1   force =     0.00011109    0.00002370   -0.00010545
     atom   19 type  1   force =    -0.00011109    0.00002370   -0.00010545
     atom   20 type  1   force =     0.00010743   -0.00002606   -0.00010345
     atom   21 type  1   force =    -0.00010848   -0.00002518   -0.00010381
     atom   22 type  1   force =     0.00011006    0.00002450   -0.00010512
     atom   23 type  1   force =    -0.00011006    0.00002450   -0.00010512
     atom   24 type  1   force =     0.00010848   -0.00002518   -0.00010381

     Total force =     0.000715     Total SCF correction =     0.000076
     SCF correction compared to forces is large: reduce conv_thr to get better values


     Computing stress (Cartesian axis) and pressure

          total   stress  (Ry/bohr**3)                   (kbar)     P=       10.52
   0.00006950   0.00000000   0.00000000           10.22        0.00        0.00
   0.00000000   0.00007337  -0.00000001            0.00       10.79       -0.00
   0.00000000  -0.00000001   0.00007162            0.00       -0.00       10.54

     Energy error            =      2.4E-06 Ry
     Gradient error          =      1.6E-04 Ry/Bohr

     number of scf cycles    =  32
     number of bfgs steps    =  31

     energy             old  =    -276.0182977092 Ry
     energy             new  =    -276.0183000739 Ry

     CASE: energy            _new < energy            _old

     new trust radius        =       0.0012082337 bohr
     new conv_thr            =       0.0000000010 Ry


ATOMIC_POSITIONS (crystal)
O                0.0000000000        0.6629681825        0.0584694602
O                0.0000000000        0.3370315731        0.5584698765
O                0.5000000000        0.1629679501        0.0584691520
O                0.5000000000        0.8370312865        0.5584702311
O                0.5000000000        0.8297825377        0.9343695368
O                0.5000000000        0.1702177371        0.4343698637
O                0.0000000000        0.3297823941        0.9343696370
O                0.0000000000        0.6702177456        0.4343697809
H                0.0000000000        0.6636600162        0.2033841780
H                0.0000000000        0.3363400039        0.7033837629
H                0.5000000000        0.1636599457        0.2033843871
H                0.5000000000        0.8363400250        0.7033836139
H                0.0000000000        0.5327984592        0.0157688507
H                0.0000000000        0.4672016660        0.5157686476
H                0.5000000000        0.0327987263        0.0157688361
H                0.5000000000        0.9672018269        0.5157685966
H                0.6896255508        0.7628475487        0.9830039334
H                0.3103746643        0.2371523973        0.4830039395
H                0.6896253357        0.2371523973        0.4830039395
H                0.3103744492        0.7628475487        0.9830039334
H                0.1896254892        0.2628475303        0.9830039992
H                0.8103745923        0.7371524859        0.4830039553
H                0.1896254077        0.7371524859        0.4830039553
H                0.8103745108        0.2628475303        0.9830039992



     Writing config-only to output data dir ./iceIh/iceIh.save/ :
     XML data file
     NEW-OLD atomic charge density approx. for the potential

     total cpu time spent up to now is     2468.0 secs

     per-process dynamical memory:    60.5 Mb

     Self-consistent Calculation

     iteration #  1     ecut=    90.00 Ry     beta= 0.70
     Davidson diagonalization with overlap
     ethr =  1.00E-06,  avg # of iterations =  2.0

     Threshold (ethr) on eigenvalues was too large:
     Diagonalizing with lowered threshold

     Davidson diagonalization with overlap
     ethr =  5.08E-10,  avg # of iterations =  3.5

     total cpu time spent up to now is     2487.9 secs

     total energy              =    -276.01830100 Ry
     estimated scf accuracy    <       0.00000043 Ry

     iteration #  2     ecut=    90.00 Ry     beta= 0.70
     Davidson diagonalization with overlap
     ethr =  6.77E-10,  avg # of iterations =  2.0

     total cpu time spent up to now is     2496.1 secs

     total energy              =    -276.01830106 Ry
     estimated scf accuracy    <       0.00000005 Ry

     iteration #  3     ecut=    90.00 Ry     beta= 0.70
     Davidson diagonalization with overlap
     ethr =  7.89E-11,  avg # of iterations =  3.0

     total cpu time spent up to now is     2506.4 secs

     total energy              =    -276.01830107 Ry
     estimated scf accuracy    <       0.00000002 Ry

     iteration #  4     ecut=    90.00 Ry     beta= 0.70
     Davidson diagonalization with overlap
     ethr =  3.18E-11,  avg # of iterations =  2.7

     total cpu time spent up to now is     2514.8 secs

     End of self-consistent calculation

     Number of k-points >= 100: set verbosity='high' to print the bands.

     highest occupied level (ev):    -2.7484

!    total energy              =    -276.01830107 Ry
     estimated scf accuracy    <          4.0E-10 Ry

     The total energy is the sum of the following terms:
     one-electron contribution =    -221.35480567 Ry
     hartree contribution      =     132.79818429 Ry
     xc contribution           =     -67.88394924 Ry
     ewald contribution        =    -119.57773046 Ry

     convergence has been achieved in   4 iterations

     Forces acting on atoms (cartesian axes, Ry/au):

     atom    1 type  2   force =     0.00000000   -0.00000812    0.00004035
     atom    2 type  2   force =     0.00000000    0.00001306    0.00002941
     atom    3 type  2   force =     0.00000000   -0.00000215    0.00004734
     atom    4 type  2   force =     0.00000000    0.00001897    0.00002257
     atom    5 type  2   force =     0.00000000   -0.00000032    0.00000119
     atom    6 type  2   force =     0.00000000   -0.00000511   -0.00000344
     atom    7 type  2   force =     0.00000000    0.00000142    0.00000018
     atom    8 type  2   force =     0.00000000   -0.00000348   -0.00000243
     atom    9 type  1   force =     0.00000000   -0.00000098    0.00005314
     atom   10 type  1   force =     0.00000000    0.00000095    0.00006067
     atom   11 type  1   force =     0.00000000   -0.00000110    0.00004857
     atom   12 type  1   force =     0.00000000    0.00000076    0.00006515
     atom   13 type  1   force =     0.00000000    0.00001899   -0.00001981
     atom   14 type  1   force =     0.00000000   -0.00002355   -0.00001793
     atom   15 type  1   force =     0.00000000    0.00001387   -0.00002141
     atom   16 type  1   force =     0.00000000   -0.00002850   -0.00001634
     atom   17 type  1   force =    -0.00000212    0.00000036   -0.00003679
     atom   18 type  1   force =    -0.00000121    0.00000173   -0.00003499
     atom   19 type  1   force =     0.00000121    0.00000173   -0.00003499
     atom   20 type  1   force =     0.00000212    0.00000036   -0.00003679
     atom   21 type  1   force =    -0.00000117   -0.00000038   -0.00003652
     atom   22 type  1   force =    -0.00000026    0.00000093   -0.00003531
     atom   23 type  1   force =     0.00000026    0.00000093   -0.00003531
     atom   24 type  1   force =     0.00000117   -0.00000038   -0.00003652

     Total force =     0.000181     Total SCF correction =     0.000032
     SCF correction compared to forces is large: reduce conv_thr to get better values


     Computing stress (Cartesian axis) and pressure

          total   stress  (Ry/bohr**3)                   (kbar)     P=       10.56
   0.00007034   0.00000000   0.00000000           10.35        0.00        0.00
   0.00000000   0.00007351   0.00000001            0.00       10.81        0.00
   0.00000000   0.00000001   0.00007157            0.00        0.00       10.53

     Energy error            =      1.0E-06 Ry
     Gradient error          =      6.5E-05 Ry/Bohr

     bfgs converged in  33 scf cycles and  32 bfgs steps
     (criteria: energy <  1.0E-04 Ry, force <  1.0E-04 Ry/Bohr)

     End of BFGS Geometry Optimization

     Final energy             =    -276.0183010729 Ry

     File ./iceIh/iceIh.bfgs deleted, as requested
Begin final coordinates

ATOMIC_POSITIONS (crystal)
O                0.0000000000        0.6629681825        0.0584694602
O                0.0000000000        0.3370315731        0.5584698765
O                0.5000000000        0.1629679501        0.0584691520
O                0.5000000000        0.8370312865        0.5584702311
O                0.5000000000        0.8297825377        0.9343695368
O                0.5000000000        0.1702177371        0.4343698637
O                0.0000000000        0.3297823941        0.9343696370
O                0.0000000000        0.6702177456        0.4343697809
H                0.0000000000        0.6636600162        0.2033841780
H                0.0000000000        0.3363400039        0.7033837629
H                0.5000000000        0.1636599457        0.2033843871
H                0.5000000000        0.8363400250        0.7033836139
H                0.0000000000        0.5327984592        0.0157688507
H                0.0000000000        0.4672016660        0.5157686476
H                0.5000000000        0.0327987263        0.0157688361
H                0.5000000000        0.9672018269        0.5157685966
H                0.6896255508        0.7628475487        0.9830039334
H                0.3103746643        0.2371523973        0.4830039395
H                0.6896253357        0.2371523973        0.4830039395
H                0.3103744492        0.7628475487        0.9830039334
H                0.1896254892        0.2628475303        0.9830039992
H                0.8103745923        0.7371524859        0.4830039553
H                0.1896254077        0.7371524859        0.4830039553
H                0.8103745108        0.2628475303        0.9830039992
End final coordinates



     Writing all to output data dir ./iceIh/iceIh.save/ :
     XML data file, charge density, pseudopotentials, collected wavefunctions

     init_run     :      4.27s CPU      4.35s WALL (       1 calls)
     electrons    :   2204.07s CPU   2242.44s WALL (      33 calls)
     update_pot   :      0.40s CPU      0.43s WALL (      32 calls)
     forces       :     17.02s CPU     17.09s WALL (      33 calls)
     stress       :    253.49s CPU    253.64s WALL (      33 calls)

     Called by init_run:
     wfcinit      :      3.82s CPU      3.87s WALL (       1 calls)
     potinit      :      0.02s CPU      0.04s WALL (       1 calls)
     hinit0       :      0.35s CPU      0.35s WALL (       1 calls)

     Called by electrons:
     c_bands      :   1966.01s CPU   1999.84s WALL (     227 calls)
     sum_band     :    234.71s CPU    237.41s WALL (     227 calls)
     v_of_rho     :      2.34s CPU      2.36s WALL (     235 calls)
     newd         :      0.45s CPU      0.45s WALL (     235 calls)
     mix_rho      :      0.31s CPU      0.31s WALL (     227 calls)

     Called by c_bands:
     init_us_2    :     28.20s CPU     29.26s WALL (   59915 calls)
     cegterg      :   1898.64s CPU   1916.53s WALL (   26105 calls)

     Called by *egterg:
     cdiaghg      :    171.70s CPU    172.46s WALL (   97246 calls)
     h_psi        :   1428.48s CPU   1444.29s WALL (  103916 calls)
     s_psi        :     55.51s CPU     55.88s WALL (  103916 calls)
     g_psi        :      5.04s CPU      5.06s WALL (   77696 calls)

     Called by h_psi:
     h_psi:calbec :     87.80s CPU     88.59s WALL (  103916 calls)
     vloc_psi     :   1272.70s CPU   1287.02s WALL (  103916 calls)
     add_vuspsi   :     58.86s CPU     59.36s WALL (  103916 calls)

     General routines
     calbec       :    125.27s CPU    126.42s WALL (  148996 calls)
     fft          :      1.61s CPU      1.62s WALL (    2906 calls)
     ffts         :      0.10s CPU      0.11s WALL (     227 calls)
     fftw         :   1339.53s CPU   1354.30s WALL ( 6069184 calls)

     Parallel routines

     PWSCF        :  41m25.46s CPU  42m13.10s WALL


   This run was terminated on:   0: 8:27   1Apr2026            

=------------------------------------------------------------------------------=
   JOB DONE.
=------------------------------------------------------------------------------=
