
     Program PWSCF v.7.3.1 starts on  1Apr2026 at  0: 8:32 

     This program is part of the open-source Quantum ESPRESSO suite
     for quantum simulation of materials; please cite
         "P. Giannozzi et al., J. Phys.:Condens. Matter 21 395502 (2009);
         "P. Giannozzi et al., J. Phys.:Condens. Matter 29 465901 (2017);
         "P. Giannozzi et al., J. Chem. Phys. 152 154105 (2020);
          URL http://www.quantum-espresso.org", 
     in publications or presentations arising from this work. More details at
     http://www.quantum-espresso.org/quote

     Parallel version (MPI), running on   128 processors

     MPI processes distributed on     1 nodes
     495343 MiB available memory on the printing compute node when the environment starts

     Waiting for input...
     Reading input from standard input

     Current dimensions of program PWSCF are:
     Max number of different atomic species (ntypx) = 10
     Max number of k-points (npk) =  40000
     Max angular momentum in pseudopotentials (lmaxx) =  4
     Found identity + ( -0.5000 -0.5000  0.0000) symmetry
     This is a supercell, fractional translations are disabled

     K-points division:     npool     =       4
     R & G space division:  proc/nbgrp/npool/nimage =      32
     Subspace diagonalization in iterative solution of the eigenvalue problem:
     a serial algorithm will be used


     Parallelization info
     --------------------
     sticks:   dense  smooth     PW     G-vecs:    dense   smooth      PW
     Min         103     103     28                 5501     5501     800
     Max         104     104     29                 5504     5504     803
     Sum        3305    3305    905               176073   176073   25639

     Using Slab Decomposition



     bravais-lattice index     =            8
     lattice parameter (alat)  =       8.1502  a.u.
     unit-cell volume          =    1526.3960 (a.u.)^3
     number of atoms/cell      =           24
     number of atomic types    =            2
     number of electrons       =        64.00
     number of Kohn-Sham states=           32
     kinetic-energy cutoff     =      90.0000  Ry
     charge density cutoff     =     360.0000  Ry
     scf convergence threshold =      1.0E-07
     mixing beta               =       0.7000
     number of iterations used =            8  plain     mixing
     energy convergence thresh.=      1.0E-04
     force convergence thresh. =      1.0E-04
     Exchange-correlation=  SLA  PW   PBE  PBE
                           (   1   4   3   4   0   0   0)
     nstep                     =           50


     celldm(1)=   8.150229  celldm(2)=   1.732119  celldm(3)=   1.627721
     celldm(4)=   0.000000  celldm(5)=   0.000000  celldm(6)=   0.000000

     crystal axes: (cart. coord. in units of alat)
               a(1) = (   1.000000   0.000000   0.000000 )  
               a(2) = (   0.000000   1.732119   0.000000 )  
               a(3) = (   0.000000   0.000000   1.627721 )  

     reciprocal axes: (cart. coord. in units 2 pi/alat)
               b(1) = (  1.000000  0.000000  0.000000 )  
               b(2) = (  0.000000  0.577328  0.000000 )  
               b(3) = (  0.000000  0.000000  0.614356 )  


     PseudoPot. # 1 for H  read from file:
     ./H.pbe-van_ak.UPF
     MD5 check sum: 077eb6d537518a38cb46c6de387227b7
     Pseudo is Ultrasoft, Zval =  1.0
     Generated by new atomic code, or converted to UPF format
     Using radial grid of  615 points,  1 beta functions with: 
                l(1) =   0
     Q(r) pseudized with  8 coefficients,  rinner =    0.800

     PseudoPot. # 2 for O  read from file:
     ./O.pbe-van_ak.UPF
     MD5 check sum: 78c19812648e8988a0fe644b0f25305e
     Pseudo is Ultrasoft, Zval =  6.0
     Generated by new atomic code, or converted to UPF format
     Using radial grid of  737 points,  4 beta functions with: 
                l(1) =   0
                l(2) =   0
                l(3) =   1
                l(4) =   1
     Q(r) pseudized with  8 coefficients,  rinner =    0.800   0.800   0.800


     atomic species   valence    mass     pseudopotential
     H                 1.00     1.00800     H ( 1.00)
     O                 6.00    16.00000     O ( 1.00)

      2 Sym. Ops. (no inversion) found



   Cartesian axes

     site n.     atom                  positions (alat units)
         1        O      tau(   1) = (   0.0000000   1.1515127   0.1027092  )
         2        O      tau(   2) = (   0.0000000   0.5806063   0.9165697  )
         3        O      tau(   3) = (   0.5000000   0.2854532   0.1027092  )
         4        O      tau(   4) = (   0.5000000   1.4466659   0.9165697  )
         5        O      tau(   5) = (   0.5000000   1.4298643   1.5250118  )
         6        O      tau(   6) = (   0.5000000   0.3022548   0.7111513  )
         7        O      tau(   7) = (   0.0000000   0.5638048   1.5250118  )
         8        O      tau(   8) = (   0.0000000   1.1683143   0.7111513  )
         9        H      tau(   9) = (   0.0000000   1.1494343   0.3195216  )
        10        H      tau(  10) = (   0.0000000   0.5826848   1.1333822  )
        11        H      tau(  11) = (   0.5000000   0.2833747   0.3195216  )
        12        H      tau(  12) = (   0.5000000   1.4487443   1.1333822  )
        13        H      tau(  13) = (   0.0000000   0.9289355   0.0297873  )
        14        H      tau(  14) = (   0.0000000   0.8031836   0.8436478  )
        15        H      tau(  15) = (   0.5000000   0.0628759   0.0297873  )
        16        H      tau(  16) = (   0.5000000   1.6692431   0.8436478  )
        17        H      tau(  17) = (   0.6766000   1.3420459   1.5979337  )
        18        H      tau(  18) = (   0.3234000   0.3900732   0.7840732  )
        19        H      tau(  19) = (   0.6766000   0.3900732   0.7840732  )
        20        H      tau(  20) = (   0.3234000   1.3420459   1.5979337  )
        21        H      tau(  21) = (   0.1766000   0.4759863   1.5979337  )
        22        H      tau(  22) = (   0.8234000   1.2561327   0.7840732  )
        23        H      tau(  23) = (   0.1766000   1.2561327   0.7840732  )
        24        H      tau(  24) = (   0.8234000   0.4759863   1.5979337  )

     number of k points=   460

     Number of k-points >= 100: set verbosity='high' to print them.

     Dense  grid:   176073 G-vectors     FFT dimensions: (  50,  90,  81)

     Estimated max dynamical RAM per process >      46.24 MB

     Estimated total dynamical RAM >       5.65 GB

     Initial potential from superposition of free atoms

     starting charge      63.9998, renormalised to      64.0000
     Starting wfcs are   48 randomized atomic wfcs

     total cpu time spent up to now is        4.6 secs

     per-process dynamical memory:    53.7 Mb

     Self-consistent Calculation

     iteration #  1     ecut=    90.00 Ry     beta= 0.70
     Davidson diagonalization with overlap
     ethr =  1.00E-02,  avg # of iterations =  2.0

     total cpu time spent up to now is       13.4 secs

     total energy              =    -274.65208692 Ry
     estimated scf accuracy    <       3.01629813 Ry

     iteration #  2     ecut=    90.00 Ry     beta= 0.70
     Davidson diagonalization with overlap
     ethr =  4.71E-03,  avg # of iterations =  3.0

     total cpu time spent up to now is       24.5 secs

     total energy              =    -275.61986297 Ry
     estimated scf accuracy    <       1.41002698 Ry

     iteration #  3     ecut=    90.00 Ry     beta= 0.70
     Davidson diagonalization with overlap
     ethr =  2.20E-03,  avg # of iterations =  2.0

     total cpu time spent up to now is       32.9 secs

     total energy              =    -275.79789532 Ry
     estimated scf accuracy    <       0.05340729 Ry

     iteration #  4     ecut=    90.00 Ry     beta= 0.70
     Davidson diagonalization with overlap
     ethr =  8.34E-05,  avg # of iterations =  4.0

     total cpu time spent up to now is       45.4 secs

     total energy              =    -275.83684812 Ry
     estimated scf accuracy    <       0.06708407 Ry

     iteration #  5     ecut=    90.00 Ry     beta= 0.70
     Davidson diagonalization with overlap
     ethr =  8.34E-05,  avg # of iterations =  2.0

     total cpu time spent up to now is       53.4 secs

     total energy              =    -275.84031369 Ry
     estimated scf accuracy    <       0.00953785 Ry

     iteration #  6     ecut=    90.00 Ry     beta= 0.70
     Davidson diagonalization with overlap
     ethr =  1.49E-05,  avg # of iterations =  2.0

     total cpu time spent up to now is       61.6 secs

     total energy              =    -275.84065487 Ry
     estimated scf accuracy    <       0.00208578 Ry

     iteration #  7     ecut=    90.00 Ry     beta= 0.70
     Davidson diagonalization with overlap
     ethr =  3.26E-06,  avg # of iterations =  2.7

     total cpu time spent up to now is       71.9 secs

     total energy              =    -275.84151253 Ry
     estimated scf accuracy    <       0.00010026 Ry

     iteration #  8     ecut=    90.00 Ry     beta= 0.70
     Davidson diagonalization with overlap
     ethr =  1.57E-07,  avg # of iterations =  2.5

     total cpu time spent up to now is       80.8 secs

     total energy              =    -275.84151009 Ry
     estimated scf accuracy    <       0.00008117 Ry

     iteration #  9     ecut=    90.00 Ry     beta= 0.70
     Davidson diagonalization with overlap
     ethr =  1.27E-07,  avg # of iterations =  1.0

     total cpu time spent up to now is       87.2 secs

     total energy              =    -275.84149970 Ry
     estimated scf accuracy    <       0.00003242 Ry

     iteration # 10     ecut=    90.00 Ry     beta= 0.70
     Davidson diagonalization with overlap
     ethr =  5.07E-08,  avg # of iterations =  2.0

     total cpu time spent up to now is       95.6 secs

     total energy              =    -275.84150339 Ry
     estimated scf accuracy    <       0.00000213 Ry

     iteration # 11     ecut=    90.00 Ry     beta= 0.70
     Davidson diagonalization with overlap
     ethr =  3.33E-09,  avg # of iterations =  2.7

     total cpu time spent up to now is      105.7 secs

     End of self-consistent calculation

     Number of k-points >= 100: set verbosity='high' to print the bands.

     highest occupied level (ev):    -2.8955

!    total energy              =    -275.84150406 Ry
     estimated scf accuracy    <       0.00000002 Ry

     The total energy is the sum of the following terms:
     one-electron contribution =    -231.26833820 Ry
     hartree contribution      =     137.19095524 Ry
     xc contribution           =     -68.73749466 Ry
     ewald contribution        =    -113.02662645 Ry

     convergence has been achieved in  11 iterations

     Forces acting on atoms (cartesian axes, Ry/au):

     atom    1 type  2   force =     0.00000000   -0.01218328   -0.13012176
     atom    2 type  2   force =     0.00000000    0.01216998   -0.12995426
     atom    3 type  2   force =     0.00000000   -0.01218026   -0.13012353
     atom    4 type  2   force =     0.00000000    0.01216907   -0.12995505
     atom    5 type  2   force =     0.00000000    0.19436733   -0.14329194
     atom    6 type  2   force =     0.00000000   -0.19442033   -0.14338225
     atom    7 type  2   force =     0.00000000    0.19436820   -0.14329199
     atom    8 type  2   force =     0.00000000   -0.19442108   -0.14338319
     atom    9 type  1   force =     0.00000000   -0.00085813    0.12266090
     atom   10 type  1   force =     0.00000000    0.00088544    0.12267986
     atom   11 type  1   force =     0.00000000   -0.00085792    0.12266014
     atom   12 type  1   force =     0.00000000    0.00088534    0.12267963
     atom   13 type  1   force =     0.00000000    0.00973727    0.00142406
     atom   14 type  1   force =     0.00000000   -0.00972488    0.00143763
     atom   15 type  1   force =     0.00000000    0.00973813    0.00142410
     atom   16 type  1   force =     0.00000000   -0.00972494    0.00143767
     atom   17 type  1   force =     0.15997203   -0.09633540    0.07464459
     atom   18 type  1   force =    -0.15997356    0.09634788    0.07463049
     atom   19 type  1   force =     0.15997356    0.09634788    0.07463049
     atom   20 type  1   force =    -0.15997203   -0.09633540    0.07464459
     atom   21 type  1   force =     0.15997189   -0.09633515    0.07464453
     atom   22 type  1   force =    -0.15997339    0.09634770    0.07463039
     atom   23 type  1   force =     0.15997339    0.09634770    0.07463039
     atom   24 type  1   force =    -0.15997189   -0.09633515    0.07464453

     Total force =     0.828072     Total SCF correction =     0.000056


     Computing stress (Cartesian axis) and pressure

          total   stress  (Ry/bohr**3)                   (kbar)     P=      137.06
   0.00139897   0.00000000   0.00000000          205.80        0.00        0.00
   0.00000000   0.00039461  -0.00000000            0.00       58.05       -0.00
   0.00000000  -0.00000000   0.00100163            0.00       -0.00      147.35


     BFGS Geometry Optimization
     Energy error            =      0.0E+00 Ry
     Gradient error          =      1.9E-01 Ry/Bohr

     number of scf cycles    =   1
     number of bfgs steps    =   0

     energy             new  =    -275.8415040608 Ry

     new trust radius        =       0.2415746194 bohr
     new conv_thr            =       0.0000001000 Ry


ATOMIC_POSITIONS (crystal)
O                0.0000000000        0.6639369763        0.0532915585
O                0.0000000000        0.3360620817        0.5533041617
O                0.5000000000        0.1639371906        0.0532914252
O                0.5000000000        0.8360620172        0.5533041021
O                0.5000000000        0.8392681641        0.9260988211
O                0.5000000000        0.1607280815        0.4260919835
O                0.0000000000        0.3392682263        0.9260988174
O                0.0000000000        0.6607280281        0.4260919128
H                0.0000000000        0.6635392418        0.2055460521
H                0.0000000000        0.3364626927        0.7055475114
H                0.5000000000        0.1635392566        0.2055459951
H                0.5000000000        0.8364626860        0.7055474941
H                0.0000000000        0.5369897505        0.0184073455
H                0.0000000000        0.4630111272        0.5184083638
H                0.5000000000        0.0369898118        0.0184073485
H                0.5000000000        0.9630111228        0.5184083673
H                0.6962278963        0.7679760140        0.9873266350
H                0.3037719164        0.2320248699        0.4873255722
H                0.6962280836        0.2320248699        0.4873255722
H                0.3037721037        0.7679760140        0.9873266350
H                0.1962278791        0.2679760313        0.9873266311
H                0.8037719370        0.7320248572        0.4873255647
H                0.1962280630        0.7320248572        0.4873255647
H                0.8037721209        0.2679760313        0.9873266311



     Writing config-only to output data dir ./iceIh/iceIh.save/ :
     XML data file
     NEW-OLD atomic charge density approx. for the potential

     total cpu time spent up to now is      114.3 secs

     per-process dynamical memory:    58.4 Mb

     Self-consistent Calculation

     iteration #  1     ecut=    90.00 Ry     beta= 0.70
     Davidson diagonalization with overlap
     ethr =  1.00E-06,  avg # of iterations = 11.9

     total cpu time spent up to now is      144.6 secs

     total energy              =    -275.89898879 Ry
     estimated scf accuracy    <       0.16987475 Ry

     iteration #  2     ecut=    90.00 Ry     beta= 0.70
     Davidson diagonalization with overlap
     ethr =  2.65E-04,  avg # of iterations =  3.0

     total cpu time spent up to now is      154.9 secs

     total energy              =    -275.93919516 Ry
     estimated scf accuracy    <       0.05280528 Ry

     iteration #  3     ecut=    90.00 Ry     beta= 0.70
     Davidson diagonalization with overlap
     ethr =  8.25E-05,  avg # of iterations =  2.4

     total cpu time spent up to now is      163.9 secs

     total energy              =    -275.95003476 Ry
     estimated scf accuracy    <       0.00174418 Ry

     iteration #  4     ecut=    90.00 Ry     beta= 0.70
     Davidson diagonalization with overlap
     ethr =  2.73E-06,  avg # of iterations =  3.0

     total cpu time spent up to now is      174.6 secs

     total energy              =    -275.95060227 Ry
     estimated scf accuracy    <       0.00060599 Ry

     iteration #  5     ecut=    90.00 Ry     beta= 0.70
     Davidson diagonalization with overlap
     ethr =  9.47E-07,  avg # of iterations =  2.0

     total cpu time spent up to now is      183.3 secs

     total energy              =    -275.95067688 Ry
     estimated scf accuracy    <       0.00006592 Ry

     iteration #  6     ecut=    90.00 Ry     beta= 0.70
     Davidson diagonalization with overlap
     ethr =  1.03E-07,  avg # of iterations =  3.8

     total cpu time spent up to now is      194.6 secs

     total energy              =    -275.95069454 Ry
     estimated scf accuracy    <       0.00003813 Ry

     iteration #  7     ecut=    90.00 Ry     beta= 0.70
     Davidson diagonalization with overlap
     ethr =  5.96E-08,  avg # of iterations =  2.4

     total cpu time spent up to now is      204.2 secs

     total energy              =    -275.95070343 Ry
     estimated scf accuracy    <       0.00000032 Ry

     iteration #  8     ecut=    90.00 Ry     beta= 0.70
     Davidson diagonalization with overlap
     ethr =  4.92E-10,  avg # of iterations =  5.6

     total cpu time spent up to now is      220.1 secs

     total energy              =    -275.95070363 Ry
     estimated scf accuracy    <       0.00000187 Ry

     iteration #  9     ecut=    90.00 Ry     beta= 0.70
     Davidson diagonalization with overlap
     ethr =  4.92E-10,  avg # of iterations =  3.6

     total cpu time spent up to now is      231.9 secs

     total energy              =    -275.95070379 Ry
     estimated scf accuracy    <       0.00000013 Ry

     iteration # 10     ecut=    90.00 Ry     beta= 0.70
     Davidson diagonalization with overlap
     ethr =  2.00E-10,  avg # of iterations =  2.2

     total cpu time spent up to now is      241.4 secs

     End of self-consistent calculation

     Number of k-points >= 100: set verbosity='high' to print the bands.

     highest occupied level (ev):    -2.6249

!    total energy              =    -275.95070382 Ry
     estimated scf accuracy    <          1.2E-09 Ry

     The total energy is the sum of the following terms:
     one-electron contribution =    -218.60879468 Ry
     hartree contribution      =     131.49262707 Ry
     xc contribution           =     -67.47690307 Ry
     ewald contribution        =    -121.35763315 Ry

     convergence has been achieved in  10 iterations

     Forces acting on atoms (cartesian axes, Ry/au):

     atom    1 type  2   force =     0.00000000    0.06507624    0.07179563
     atom    2 type  2   force =     0.00000000   -0.06500926    0.07173267
     atom    3 type  2   force =     0.00000000    0.06507406    0.07179608
     atom    4 type  2   force =     0.00000000   -0.06500851    0.07173292
     atom    5 type  2   force =     0.00000000   -0.07928145    0.06597020
     atom    6 type  2   force =     0.00000000    0.07930843    0.06591024
     atom    7 type  2   force =     0.00000000   -0.07928185    0.06597018
     atom    8 type  2   force =     0.00000000    0.07930886    0.06591067
     atom    9 type  1   force =     0.00000000    0.00635615   -0.03447292
     atom   10 type  1   force =     0.00000000   -0.00636024   -0.03439929
     atom   11 type  1   force =     0.00000000    0.00635656   -0.03447328
     atom   12 type  1   force =     0.00000000   -0.00636039   -0.03439955
     atom   13 type  1   force =     0.00000000   -0.04886538   -0.02885605
     atom   14 type  1   force =     0.00000000    0.04881500   -0.02887102
     atom   15 type  1   force =     0.00000000   -0.04886398   -0.02885594
     atom   16 type  1   force =     0.00000000    0.04881451   -0.02887097
     atom   17 type  1   force =    -0.04405245    0.02927591   -0.03719640
     atom   18 type  1   force =     0.04406632   -0.02929560   -0.03720838
     atom   19 type  1   force =    -0.04406632   -0.02929560   -0.03720838
     atom   20 type  1   force =     0.04405245    0.02927591   -0.03719640
     atom   21 type  1   force =    -0.04405243    0.02927608   -0.03719647
     atom   22 type  1   force =     0.04406636   -0.02929577   -0.03720853
     atom   23 type  1   force =    -0.04406636   -0.02929577   -0.03720853
     atom   24 type  1   force =     0.04405243    0.02927608   -0.03719647

     Total force =     0.362364     Total SCF correction =     0.000043


     Computing stress (Cartesian axis) and pressure

          total   stress  (Ry/bohr**3)                   (kbar)     P=      -32.68
  -0.00048494   0.00000000   0.00000000          -71.34        0.00        0.00
   0.00000000   0.00015805  -0.00000001            0.00       23.25       -0.00
   0.00000000  -0.00000001  -0.00033961            0.00       -0.00      -49.96

     Energy error            =      1.1E-01 Ry
     Gradient error          =      7.9E-02 Ry/Bohr

     number of scf cycles    =   2
     number of bfgs steps    =   1

     energy             old  =    -275.8415040608 Ry
     energy             new  =    -275.9507038249 Ry

     CASE: energy            _new < energy            _old

     new trust radius        =       0.0687450531 bohr
     new conv_thr            =       0.0000001000 Ry


ATOMIC_POSITIONS (crystal)
O                0.0000000000        0.6672573544        0.0569697280
O                0.0000000000        0.3327451196        0.5569792060
O                0.5000000000        0.1672574620        0.0569696158
O                0.5000000000        0.8327450922        0.5569791585
O                0.5000000000        0.8355410880        0.9294338076
O                0.5000000000        0.1644564497        0.4294235231
O                0.0000000000        0.3355411309        0.9294338028
O                0.0000000000        0.6644564169        0.4294234744
H                0.0000000000        0.6638641390        0.2038934406
H                0.0000000000        0.3361376341        0.7038989596
H                0.5000000000        0.1638641754        0.2038933628
H                0.5000000000        0.8361376195        0.7038989278
H                0.0000000000        0.5344975409        0.0168330944
H                0.0000000000        0.4655007713        0.5168333199
H                0.5000000000        0.0344976758        0.0168331035
H                0.5000000000        0.9655007416        0.5168333266
H                0.6928002956        0.7693087743        0.9854346548
H                0.3072007464        0.2306911206        0.4854329108
H                0.6927992536        0.2306911206        0.4854329108
H                0.3071997044        0.7693087743        0.9854346548
H                0.1928002797        0.2693088006        0.9854346470
H                0.8072007708        0.7306910989        0.4854328948
H                0.1927992292        0.7306910989        0.4854328948
H                0.8071997203        0.2693088006        0.9854346470



     Writing config-only to output data dir ./iceIh/iceIh.save/ :
     XML data file
     NEW-OLD atomic charge density approx. for the potential

     total cpu time spent up to now is      249.9 secs

     per-process dynamical memory:    59.2 Mb

     Self-consistent Calculation

     iteration #  1     ecut=    90.00 Ry     beta= 0.70
     Davidson diagonalization with overlap
     ethr =  1.00E-06,  avg # of iterations =  9.0

     total cpu time spent up to now is      272.9 secs

     total energy              =    -276.00288044 Ry
     estimated scf accuracy    <       0.01221466 Ry

     iteration #  2     ecut=    90.00 Ry     beta= 0.70
     Davidson diagonalization with overlap
     ethr =  1.91E-05,  avg # of iterations =  3.0

     total cpu time spent up to now is      282.9 secs

     total energy              =    -276.00540131 Ry
     estimated scf accuracy    <       0.00280235 Ry

     iteration #  3     ecut=    90.00 Ry     beta= 0.70
     Davidson diagonalization with overlap
     ethr =  4.38E-06,  avg # of iterations =  3.0

     total cpu time spent up to now is      292.7 secs

     total energy              =    -276.00608993 Ry
     estimated scf accuracy    <       0.00021956 Ry

     iteration #  4     ecut=    90.00 Ry     beta= 0.70
     Davidson diagonalization with overlap
     ethr =  3.43E-07,  avg # of iterations =  2.4

     total cpu time spent up to now is      301.3 secs

     total energy              =    -276.00612681 Ry
     estimated scf accuracy    <       0.00001449 Ry

     iteration #  5     ecut=    90.00 Ry     beta= 0.70
     Davidson diagonalization with overlap
     ethr =  2.26E-08,  avg # of iterations =  3.5

     total cpu time spent up to now is      311.9 secs

     total energy              =    -276.00613184 Ry
     estimated scf accuracy    <       0.00000159 Ry

     iteration #  6     ecut=    90.00 Ry     beta= 0.70
     Davidson diagonalization with overlap
     ethr =  2.48E-09,  avg # of iterations =  2.0

     total cpu time spent up to now is      319.8 secs

     total energy              =    -276.00613193 Ry
     estimated scf accuracy    <       0.00000019 Ry

     iteration #  7     ecut=    90.00 Ry     beta= 0.70
     Davidson diagonalization with overlap
     ethr =  2.95E-10,  avg # of iterations =  4.5

     total cpu time spent up to now is      332.0 secs

     total energy              =    -276.00613200 Ry
     estimated scf accuracy    <       0.00000015 Ry

     iteration #  8     ecut=    90.00 Ry     beta= 0.70
     Davidson diagonalization with overlap
     ethr =  2.39E-10,  avg # of iterations =  3.0

     total cpu time spent up to now is      341.3 secs

     End of self-consistent calculation

     Number of k-points >= 100: set verbosity='high' to print the bands.

     highest occupied level (ev):    -2.7153

!    total energy              =    -276.00613203 Ry
     estimated scf accuracy    <          1.1E-09 Ry

     The total energy is the sum of the following terms:
     one-electron contribution =    -220.06170849 Ry
     hartree contribution      =     132.15153179 Ry
     xc contribution           =     -67.62524928 Ry
     ewald contribution        =    -120.47070605 Ry

     convergence has been achieved in   8 iterations

     Forces acting on atoms (cartesian axes, Ry/au):

     atom    1 type  2   force =     0.00000000   -0.01706167    0.01785800
     atom    2 type  2   force =     0.00000000    0.01703628    0.01769823
     atom    3 type  2   force =     0.00000000   -0.01706159    0.01785870
     atom    4 type  2   force =     0.00000000    0.01703626    0.01769846
     atom    5 type  2   force =     0.00000000   -0.02828621    0.03573253
     atom    6 type  2   force =     0.00000000    0.02834703    0.03586941
     atom    7 type  2   force =     0.00000000   -0.02828625    0.03573252
     atom    8 type  2   force =     0.00000000    0.02834710    0.03586966
     atom    9 type  1   force =     0.00000000    0.00703410   -0.01383106
     atom   10 type  1   force =     0.00000000   -0.00703887   -0.01378717
     atom   11 type  1   force =     0.00000000    0.00703428   -0.01383121
     atom   12 type  1   force =     0.00000000   -0.00703894   -0.01378719
     atom   13 type  1   force =     0.00000000    0.01783057   -0.00666041
     atom   14 type  1   force =     0.00000000   -0.01781912   -0.00666289
     atom   15 type  1   force =     0.00000000    0.01783011   -0.00666072
     atom   16 type  1   force =     0.00000000   -0.01781898   -0.00666298
     atom   17 type  1   force =    -0.02277376    0.01121957   -0.01654475
     atom   18 type  1   force =     0.02278930   -0.01124059   -0.01656366
     atom   19 type  1   force =    -0.02278930   -0.01124059   -0.01656366
     atom   20 type  1   force =     0.02277376    0.01121957   -0.01654475
     atom   21 type  1   force =    -0.02277372    0.01121962   -0.01654479
     atom   22 type  1   force =     0.02278928   -0.01124064   -0.01656373
     atom   23 type  1   force =    -0.02278928   -0.01124064   -0.01656373
     atom   24 type  1   force =     0.02277372    0.01121962   -0.01654479

     Total force =     0.143261     Total SCF correction =     0.000090


     Computing stress (Cartesian axis) and pressure

          total   stress  (Ry/bohr**3)                   (kbar)     P=      -20.03
  -0.00020796   0.00000000   0.00000000          -30.59        0.00        0.00
   0.00000000  -0.00012823  -0.00000006            0.00      -18.86       -0.01
   0.00000000  -0.00000006  -0.00007238            0.00       -0.01      -10.65

     Energy error            =      5.5E-02 Ry
     Gradient error          =      3.6E-02 Ry/Bohr

     number of scf cycles    =   3
     number of bfgs steps    =   2

     energy             old  =    -275.9507038249 Ry
     energy             new  =    -276.0061320303 Ry

     CASE: energy            _new < energy            _old

     new trust radius        =       0.0655802110 bohr
     new conv_thr            =       0.0000001000 Ry


ATOMIC_POSITIONS (crystal)
O                0.0000000000        0.6657956444        0.0589956389
O                0.0000000000        0.3342045872        0.5589888523
O                0.5000000000        0.1657957533        0.0589955997
O                0.5000000000        0.8342045600        0.5589888294
O                0.5000000000        0.8326060009        0.9332467408
O                0.5000000000        0.1673973558        0.4332500998
O                0.0000000000        0.3326060389        0.9332467347
O                0.0000000000        0.6673973314        0.4332500772
H                0.0000000000        0.6645416023        0.2023616024
H                0.0000000000        0.3354596988        0.7023716856
H                0.5000000000        0.1645416561        0.2023615091
H                0.5000000000        0.8354596775        0.7023716505
H                0.0000000000        0.5360680987        0.0160974825
H                0.0000000000        0.4639311779        0.5160974179
H                0.5000000000        0.0360681928        0.0160974611
H                0.5000000000        0.9639311603        0.5160974149
H                0.6887784099        0.7704777653        0.9836494986
H                0.3112252239        0.2295200983        0.4836458365
H                0.6887747761        0.2295200983        0.4836458365
H                0.3112215901        0.7704777653        0.9836494986
H                0.1887784014        0.2704777967        0.9836494862
H                0.8112252448        0.7295200716        0.4836458133
H                0.1887747552        0.7295200716        0.4836458133
H                0.8112215986        0.2704777967        0.9836494862



     Writing config-only to output data dir ./iceIh/iceIh.save/ :
     XML data file
     NEW-OLD atomic charge density approx. for the potential

     total cpu time spent up to now is      349.7 secs

     per-process dynamical memory:    59.2 Mb

     Self-consistent Calculation

     iteration #  1     ecut=    90.00 Ry     beta= 0.70
     Davidson diagonalization with overlap
     ethr =  1.00E-06,  avg # of iterations =  8.3

     total cpu time spent up to now is      371.8 secs

     total energy              =    -276.01336834 Ry
     estimated scf accuracy    <       0.00988104 Ry

     iteration #  2     ecut=    90.00 Ry     beta= 0.70
     Davidson diagonalization with overlap
     ethr =  1.54E-05,  avg # of iterations =  3.0

     total cpu time spent up to now is      382.3 secs

     total energy              =    -276.01587735 Ry
     estimated scf accuracy    <       0.00308700 Ry

     iteration #  3     ecut=    90.00 Ry     beta= 0.70
     Davidson diagonalization with overlap
     ethr =  4.82E-06,  avg # of iterations =  2.0

     total cpu time spent up to now is      390.8 secs

     total energy              =    -276.01643965 Ry
     estimated scf accuracy    <       0.00010558 Ry

     iteration #  4     ecut=    90.00 Ry     beta= 0.70
     Davidson diagonalization with overlap
     ethr =  1.65E-07,  avg # of iterations =  3.0

     total cpu time spent up to now is      401.9 secs

     total energy              =    -276.01648807 Ry
     estimated scf accuracy    <       0.00006217 Ry

     iteration #  5     ecut=    90.00 Ry     beta= 0.70
     Davidson diagonalization with overlap
     ethr =  9.71E-08,  avg # of iterations =  2.0

     total cpu time spent up to now is      410.3 secs

     total energy              =    -276.01649327 Ry
     estimated scf accuracy    <       0.00000824 Ry

     iteration #  6     ecut=    90.00 Ry     beta= 0.70
     Davidson diagonalization with overlap
     ethr =  1.29E-08,  avg # of iterations =  3.0

     total cpu time spent up to now is      421.5 secs

     total energy              =    -276.01649592 Ry
     estimated scf accuracy    <       0.00000388 Ry

     iteration #  7     ecut=    90.00 Ry     beta= 0.70
     Davidson diagonalization with overlap
     ethr =  6.06E-09,  avg # of iterations =  2.0

     total cpu time spent up to now is      430.7 secs

     End of self-consistent calculation

     Number of k-points >= 100: set verbosity='high' to print the bands.

     highest occupied level (ev):    -2.7933

!    total energy              =    -276.01649664 Ry
     estimated scf accuracy    <       0.00000007 Ry

     The total energy is the sum of the following terms:
     one-electron contribution =    -223.25001792 Ry
     hartree contribution      =     133.59115020 Ry
     xc contribution           =     -67.94210237 Ry
     ewald contribution        =    -118.41552654 Ry

     convergence has been achieved in   7 iterations

     Forces acting on atoms (cartesian axes, Ry/au):

     atom    1 type  2   force =     0.00000000   -0.00160985   -0.00718361
     atom    2 type  2   force =     0.00000000    0.00160992   -0.00700305
     atom    3 type  2   force =     0.00000000   -0.00161018   -0.00718407
     atom    4 type  2   force =     0.00000000    0.00161000   -0.00700314
     atom    5 type  2   force =     0.00000000    0.02053236   -0.00770294
     atom    6 type  2   force =     0.00000000   -0.02057749   -0.00778877
     atom    7 type  2   force =     0.00000000    0.02053226   -0.00770298
     atom    8 type  2   force =     0.00000000   -0.02057755   -0.00778881
     atom    9 type  1   force =     0.00000000    0.00101232    0.00708630
     atom   10 type  1   force =     0.00000000   -0.00102329    0.00692357
     atom   11 type  1   force =     0.00000000    0.00101239    0.00708683
     atom   12 type  1   force =     0.00000000   -0.00102333    0.00692369
     atom   13 type  1   force =     0.00000000    0.00423114   -0.00218450
     atom   14 type  1   force =     0.00000000   -0.00422819   -0.00219007
     atom   15 type  1   force =     0.00000000    0.00423120   -0.00218453
     atom   16 type  1   force =     0.00000000   -0.00422819   -0.00219009
     atom   17 type  1   force =     0.00800813   -0.01229441    0.00499662
     atom   18 type  1   force =    -0.00805237    0.01232099    0.00502491
     atom   19 type  1   force =     0.00805237    0.01232099    0.00502491
     atom   20 type  1   force =    -0.00800813   -0.01229441    0.00499662
     atom   21 type  1   force =     0.00800817   -0.01229439    0.00499662
     atom   22 type  1   force =    -0.00805249    0.01232105    0.00502494
     atom   23 type  1   force =     0.00805249    0.01232105    0.00502494
     atom   24 type  1   force =    -0.00800817   -0.01229439    0.00499662

     Total force =     0.066041     Total SCF correction =     0.000390


     Computing stress (Cartesian axis) and pressure

          total   stress  (Ry/bohr**3)                   (kbar)     P=       17.91
   0.00012851   0.00000000   0.00000000           18.90        0.00        0.00
   0.00000000   0.00008903   0.00000004            0.00       13.10        0.01
   0.00000000   0.00000004   0.00014779            0.00        0.01       21.74

     Energy error            =      1.0E-02 Ry
     Gradient error          =      2.1E-02 Ry/Bohr

     number of scf cycles    =   4
     number of bfgs steps    =   3

     energy             old  =    -276.0061320303 Ry
     energy             new  =    -276.0164966355 Ry

     CASE: energy            _new < energy            _old

     new trust radius        =       0.0186549326 bohr
     new conv_thr            =       0.0000001000 Ry


ATOMIC_POSITIONS (crystal)
O                0.0000000000        0.6659283268        0.0585555356
O                0.0000000000        0.3340721894        0.5585599550
O                0.5000000000        0.1659284150        0.0585554660
O                0.5000000000        0.8340721673        0.5585599256
O                0.5000000000        0.8337871165        0.9326280087
O                0.5000000000        0.1662134693        0.4326254270
O                0.0000000000        0.3337871489        0.9326280001
O                0.0000000000        0.6662134422        0.4326254010
H                0.0000000000        0.6645515692        0.2028202680
H                0.0000000000        0.3354491897        0.7028210729
H                0.5000000000        0.1645516260        0.2028202046
H                0.5000000000        0.8354491671        0.7028210442
H                0.0000000000        0.5360893981        0.0159850449
H                0.0000000000        0.4639098779        0.5159846684
H                0.5000000000        0.0360895011        0.0159850244
H                0.5000000000        0.9639098581        0.5159846651
H                0.6897031135        0.7697882298        0.9840060329
H                0.3102963530        0.2302111503        0.4840040725
H                0.6897036470        0.2302111503        0.4840040725
H                0.3102968865        0.7697882298        0.9840060329
H                0.1897031077        0.2697882621        0.9840060205
H                0.8102963635        0.7302111264        0.4840040515
H                0.1897036365        0.7302111264        0.4840040515
H                0.8102968923        0.2697882621        0.9840060205



     Writing config-only to output data dir ./iceIh/iceIh.save/ :
     XML data file
     NEW-OLD atomic charge density approx. for the potential

     total cpu time spent up to now is      439.2 secs

     per-process dynamical memory:    59.2 Mb

     Self-consistent Calculation

     iteration #  1     ecut=    90.00 Ry     beta= 0.70
     Davidson diagonalization with overlap
     ethr =  1.00E-06,  avg # of iterations =  4.0

     total cpu time spent up to now is      453.3 secs

     total energy              =    -276.01815233 Ry
     estimated scf accuracy    <       0.00067650 Ry

     iteration #  2     ecut=    90.00 Ry     beta= 0.70
     Davidson diagonalization with overlap
     ethr =  1.06E-06,  avg # of iterations =  3.0

     total cpu time spent up to now is      463.6 secs

     total energy              =    -276.01831541 Ry
     estimated scf accuracy    <       0.00020066 Ry

     iteration #  3     ecut=    90.00 Ry     beta= 0.70
     Davidson diagonalization with overlap
     ethr =  3.14E-07,  avg # of iterations =  2.2

     total cpu time spent up to now is      472.7 secs

     total energy              =    -276.01835408 Ry
     estimated scf accuracy    <       0.00000691 Ry

     iteration #  4     ecut=    90.00 Ry     beta= 0.70
     Davidson diagonalization with overlap
     ethr =  1.08E-08,  avg # of iterations =  3.0

     total cpu time spent up to now is      483.9 secs

     total energy              =    -276.01835670 Ry
     estimated scf accuracy    <       0.00000399 Ry

     iteration #  5     ecut=    90.00 Ry     beta= 0.70
     Davidson diagonalization with overlap
     ethr =  6.24E-09,  avg # of iterations =  2.0

     total cpu time spent up to now is      492.4 secs

     total energy              =    -276.01835708 Ry
     estimated scf accuracy    <       0.00000048 Ry

     iteration #  6     ecut=    90.00 Ry     beta= 0.70
     Davidson diagonalization with overlap
     ethr =  7.45E-10,  avg # of iterations =  3.2

     total cpu time spent up to now is      503.7 secs

     total energy              =    -276.01835724 Ry
     estimated scf accuracy    <       0.00000023 Ry

     iteration #  7     ecut=    90.00 Ry     beta= 0.70
     Davidson diagonalization with overlap
     ethr =  3.56E-10,  avg # of iterations =  2.0

     total cpu time spent up to now is      512.7 secs

     End of self-consistent calculation

     Number of k-points >= 100: set verbosity='high' to print the bands.

     highest occupied level (ev):    -2.7824

!    total energy              =    -276.01835728 Ry
     estimated scf accuracy    <          3.8E-09 Ry

     The total energy is the sum of the following terms:
     one-electron contribution =    -222.45557772 Ry
     hartree contribution      =     133.23516137 Ry
     xc contribution           =     -67.86300215 Ry
     ewald contribution        =    -118.93493879 Ry

     convergence has been achieved in   7 iterations

     Forces acting on atoms (cartesian axes, Ry/au):

     atom    1 type  2   force =     0.00000000    0.00045384    0.00035096
     atom    2 type  2   force =     0.00000000   -0.00043575    0.00026021
     atom    3 type  2   force =     0.00000000    0.00045390    0.00035123
     atom    4 type  2   force =     0.00000000   -0.00043574    0.00026026
     atom    5 type  2   force =     0.00000000    0.00265819    0.00471033
     atom    6 type  2   force =     0.00000000   -0.00264308    0.00469486
     atom    7 type  2   force =     0.00000000    0.00265816    0.00471032
     atom    8 type  2   force =     0.00000000   -0.00264305    0.00469496
     atom    9 type  1   force =     0.00000000    0.00141563    0.00100856
     atom   10 type  1   force =     0.00000000   -0.00142013    0.00104152
     atom   11 type  1   force =     0.00000000    0.00141568    0.00100854
     atom   12 type  1   force =     0.00000000   -0.00142015    0.00104154
     atom   13 type  1   force =     0.00000000    0.00290733   -0.00321664
     atom   14 type  1   force =     0.00000000   -0.00292020   -0.00320897
     atom   15 type  1   force =     0.00000000    0.00290708   -0.00321676
     atom   16 type  1   force =     0.00000000   -0.00292016   -0.00320900
     atom   17 type  1   force =    -0.00233241   -0.00376915   -0.00141187
     atom   18 type  1   force =     0.00233438    0.00376127   -0.00140860
     atom   19 type  1   force =    -0.00233438    0.00376127   -0.00140860
     atom   20 type  1   force =     0.00233241   -0.00376915   -0.00141187
     atom   21 type  1   force =    -0.00233237   -0.00376916   -0.00141188
     atom   22 type  1   force =     0.00233435    0.00376127   -0.00140861
     atom   23 type  1   force =    -0.00233435    0.00376127   -0.00140861
     atom   24 type  1   force =     0.00233237   -0.00376916   -0.00141188

     Total force =     0.019445     Total SCF correction =     0.000093


     Computing stress (Cartesian axis) and pressure

          total   stress  (Ry/bohr**3)                   (kbar)     P=        8.22
   0.00002250   0.00000000   0.00000000            3.31        0.00        0.00
   0.00000000   0.00005810   0.00000001            0.00        8.55        0.00
   0.00000000   0.00000001   0.00008712            0.00        0.00       12.82

     Energy error            =      1.9E-03 Ry
     Gradient error          =      4.7E-03 Ry/Bohr

     number of scf cycles    =   5
     number of bfgs steps    =   4

     energy             old  =    -276.0164966355 Ry
     energy             new  =    -276.0183572803 Ry

     CASE: energy            _new < energy            _old

     new trust radius        =       0.0065894762 bohr
     new conv_thr            =       0.0000000186 Ry


ATOMIC_POSITIONS (crystal)
O                0.0000000000        0.6659854285        0.0585867892
O                0.0000000000        0.3340164640        0.5585855528
O                0.5000000000        0.1659855163        0.0585867374
O                0.5000000000        0.8340164435        0.5585855275
O                0.5000000000        0.8340870539        0.9330085955
O                0.5000000000        0.1659143230        0.4330040464
O                0.0000000000        0.3340870831        0.9330085854
O                0.0000000000        0.6659142983        0.4330040288
H                0.0000000000        0.6646762610        0.2029302129
H                0.0000000000        0.3353240608        0.7029321927
H                0.5000000000        0.1646763230        0.2029301525
H                0.5000000000        0.8353240359        0.7029321660
H                0.0000000000        0.5363184131        0.0156803614
H                0.0000000000        0.4636799028        0.5156805239
H                0.5000000000        0.0363184992        0.0156803307
H                0.5000000000        0.9636798856        0.5156805178
H                0.6894432147        0.7694286371        0.9838987083
H                0.3105558680        0.2305703604        0.4838972453
H                0.6894441320        0.2305703604        0.4838972453
H                0.3105567853        0.7694286371        0.9838987083
H                0.1894432151        0.2694286697        0.9838986952
H                0.8105558731        0.7305703368        0.4838972239
H                0.1894441269        0.7305703368        0.4838972239
H                0.8105567849        0.2694286697        0.9838986952



     Writing config-only to output data dir ./iceIh/iceIh.save/ :
     XML data file
     NEW-OLD atomic charge density approx. for the potential

     total cpu time spent up to now is      521.1 secs

     per-process dynamical memory:    59.2 Mb

     Self-consistent Calculation

     iteration #  1     ecut=    90.00 Ry     beta= 0.70
     Davidson diagonalization with overlap
     ethr =  1.00E-06,  avg # of iterations =  3.0

     Threshold (ethr) on eigenvalues was too large:
     Diagonalizing with lowered threshold

     Davidson diagonalization with overlap
     ethr =  3.63E-08,  avg # of iterations =  2.0

     total cpu time spent up to now is      539.5 secs

     total energy              =    -276.01874938 Ry
     estimated scf accuracy    <       0.00002607 Ry

     iteration #  2     ecut=    90.00 Ry     beta= 0.70
     Davidson diagonalization with overlap
     ethr =  4.07E-08,  avg # of iterations =  2.0

     total cpu time spent up to now is      547.6 secs

     total energy              =    -276.01875327 Ry
     estimated scf accuracy    <       0.00000117 Ry

     iteration #  3     ecut=    90.00 Ry     beta= 0.70
     Davidson diagonalization with overlap
     ethr =  1.82E-09,  avg # of iterations =  3.0

     total cpu time spent up to now is      557.4 secs

     total energy              =    -276.01875354 Ry
     estimated scf accuracy    <       0.00000033 Ry

     iteration #  4     ecut=    90.00 Ry     beta= 0.70
     Davidson diagonalization with overlap
     ethr =  5.15E-10,  avg # of iterations =  3.1

     total cpu time spent up to now is      566.9 secs

     total energy              =    -276.01875362 Ry
     estimated scf accuracy    <       0.00000003 Ry

     iteration #  5     ecut=    90.00 Ry     beta= 0.70
     Davidson diagonalization with overlap
     ethr =  4.98E-11,  avg # of iterations =  2.0

     total cpu time spent up to now is      575.4 secs

     End of self-consistent calculation

     Number of k-points >= 100: set verbosity='high' to print the bands.

     highest occupied level (ev):    -2.7855

!    total energy              =    -276.01875362 Ry
     estimated scf accuracy    <          2.6E-09 Ry

     The total energy is the sum of the following terms:
     one-electron contribution =    -222.45080465 Ry
     hartree contribution      =     133.23276958 Ry
     xc contribution           =     -67.86198401 Ry
     ewald contribution        =    -118.93873454 Ry

     convergence has been achieved in   5 iterations

     Forces acting on atoms (cartesian axes, Ry/au):

     atom    1 type  2   force =     0.00000000    0.00160429    0.00085152
     atom    2 type  2   force =     0.00000000   -0.00162713    0.00086027
     atom    3 type  2   force =     0.00000000    0.00160416    0.00085153
     atom    4 type  2   force =     0.00000000   -0.00162712    0.00086030
     atom    5 type  2   force =     0.00000000    0.00093870    0.00412535
     atom    6 type  2   force =     0.00000000   -0.00091214    0.00412358
     atom    7 type  2   force =     0.00000000    0.00093866    0.00412533
     atom    8 type  2   force =     0.00000000   -0.00091213    0.00412363
     atom    9 type  1   force =     0.00000000    0.00083631    0.00013847
     atom   10 type  1   force =     0.00000000   -0.00084233    0.00010834
     atom   11 type  1   force =     0.00000000    0.00083634    0.00013857
     atom   12 type  1   force =     0.00000000   -0.00084235    0.00010836
     atom   13 type  1   force =     0.00000000    0.00186921   -0.00249520
     atom   14 type  1   force =     0.00000000   -0.00184817   -0.00250507
     atom   15 type  1   force =     0.00000000    0.00186916   -0.00249522
     atom   16 type  1   force =     0.00000000   -0.00184815   -0.00250509
     atom   17 type  1   force =    -0.00191102   -0.00278373   -0.00130086
     atom   18 type  1   force =     0.00191815    0.00277440   -0.00130282
     atom   19 type  1   force =    -0.00191815    0.00277440   -0.00130282
     atom   20 type  1   force =     0.00191102   -0.00278373   -0.00130086
     atom   21 type  1   force =    -0.00191100   -0.00278373   -0.00130086
     atom   22 type  1   force =     0.00191812    0.00277441   -0.00130281
     atom   23 type  1   force =    -0.00191812    0.00277441   -0.00130281
     atom   24 type  1   force =     0.00191100   -0.00278373   -0.00130086

     Total force =     0.015206     Total SCF correction =     0.000121


     Computing stress (Cartesian axis) and pressure

          total   stress  (Ry/bohr**3)                   (kbar)     P=        8.06
   0.00002381   0.00000000   0.00000000            3.50        0.00        0.00
   0.00000000   0.00006238  -0.00000003            0.00        9.18       -0.00
   0.00000000  -0.00000003   0.00007816            0.00       -0.00       11.50

     Energy error            =      4.0E-04 Ry
     Gradient error          =      4.1E-03 Ry/Bohr

     number of scf cycles    =   6
     number of bfgs steps    =   5

     energy             old  =    -276.0183572803 Ry
     energy             new  =    -276.0187536217 Ry

     CASE: energy            _new < energy            _old

     new trust radius        =       0.0072484238 bohr
     new conv_thr            =       0.0000000040 Ry


ATOMIC_POSITIONS (crystal)
O                0.0000000000        0.6661314085        0.0586620614
O                0.0000000000        0.3338685081        0.5586624818
O                0.5000000000        0.1661314804        0.0586620097
O                0.5000000000        0.8338684902        0.5586624591
O                0.5000000000        0.8343424711        0.9334825733
O                0.5000000000        0.1656611940        0.4334768987
O                0.0000000000        0.3343424949        0.9334825608
O                0.0000000000        0.6656611698        0.4334768871
H                0.0000000000        0.6647965983        0.2029982723
H                0.0000000000        0.3352029814        0.7029958327
H                0.5000000000        0.1647966649        0.2029982272
H                0.5000000000        0.8352029546        0.7029958093
H                0.0000000000        0.5365735521        0.0153393613
H                0.0000000000        0.4634266406        0.5153385384
H                0.5000000000        0.0365736324        0.0153393259
H                0.5000000000        0.9634266258        0.5153385298
H                0.6891448670        0.7690245344        0.9837617088
H                0.3108546442        0.2309737433        0.4837603676
H                0.6891453558        0.2309737433        0.4837603676
H                0.3108551330        0.7690245344        0.9837617088
H                0.1891448726        0.2690245672        0.9837616951
H                0.8108546420        0.7309737215        0.4837603470
H                0.1891453580        0.7309737215        0.4837603470
H                0.8108551274        0.2690245672        0.9837616951



     Writing config-only to output data dir ./iceIh/iceIh.save/ :
     XML data file
     NEW-OLD atomic charge density approx. for the potential

     total cpu time spent up to now is      583.8 secs

     per-process dynamical memory:    59.2 Mb

     Self-consistent Calculation

     iteration #  1     ecut=    90.00 Ry     beta= 0.70
     Davidson diagonalization with overlap
     ethr =  1.00E-06,  avg # of iterations =  3.0

     Threshold (ethr) on eigenvalues was too large:
     Diagonalizing with lowered threshold

     Davidson diagonalization with overlap
     ethr =  4.70E-08,  avg # of iterations =  2.1

     total cpu time spent up to now is      602.4 secs

     total energy              =    -276.01907910 Ry
     estimated scf accuracy    <       0.00003387 Ry

     iteration #  2     ecut=    90.00 Ry     beta= 0.70
     Davidson diagonalization with overlap
     ethr =  5.29E-08,  avg # of iterations =  2.0

     total cpu time spent up to now is      610.1 secs

     total energy              =    -276.01908370 Ry
     estimated scf accuracy    <       0.00000127 Ry

     iteration #  3     ecut=    90.00 Ry     beta= 0.70
     Davidson diagonalization with overlap
     ethr =  1.99E-09,  avg # of iterations =  2.9

     total cpu time spent up to now is      619.9 secs

     total energy              =    -276.01908402 Ry
     estimated scf accuracy    <       0.00000023 Ry

     iteration #  4     ecut=    90.00 Ry     beta= 0.70
     Davidson diagonalization with overlap
     ethr =  3.66E-10,  avg # of iterations =  3.0

     total cpu time spent up to now is      629.9 secs

     total energy              =    -276.01908408 Ry
     estimated scf accuracy    <       0.00000006 Ry

     iteration #  5     ecut=    90.00 Ry     beta= 0.70
     Davidson diagonalization with overlap
     ethr =  8.61E-11,  avg # of iterations =  2.0

     total cpu time spent up to now is      638.2 secs

     End of self-consistent calculation

     Number of k-points >= 100: set verbosity='high' to print the bands.

     highest occupied level (ev):    -2.7892

!    total energy              =    -276.01908409 Ry
     estimated scf accuracy    <          3.0E-09 Ry

     The total energy is the sum of the following terms:
     one-electron contribution =    -222.46581897 Ry
     hartree contribution      =     133.23919410 Ry
     xc contribution           =     -67.86293942 Ry
     ewald contribution        =    -118.92951979 Ry

     convergence has been achieved in   5 iterations

     Forces acting on atoms (cartesian axes, Ry/au):

     atom    1 type  2   force =     0.00000000    0.00171039    0.00034878
     atom    2 type  2   force =     0.00000000   -0.00169344    0.00030014
     atom    3 type  2   force =     0.00000000    0.00171040    0.00034893
     atom    4 type  2   force =     0.00000000   -0.00169342    0.00030015
     atom    5 type  2   force =     0.00000000   -0.00015295    0.00305562
     atom    6 type  2   force =     0.00000000    0.00016305    0.00304172
     atom    7 type  2   force =     0.00000000   -0.00015295    0.00305561
     atom    8 type  2   force =     0.00000000    0.00016307    0.00304177
     atom    9 type  1   force =     0.00000000    0.00031228   -0.00010413
     atom   10 type  1   force =     0.00000000   -0.00031763   -0.00008001
     atom   11 type  1   force =     0.00000000    0.00031228   -0.00010417
     atom   12 type  1   force =     0.00000000   -0.00031763   -0.00008000
     atom   13 type  1   force =     0.00000000    0.00151903   -0.00148263
     atom   14 type  1   force =     0.00000000   -0.00153854   -0.00148077
     atom   15 type  1   force =     0.00000000    0.00151891   -0.00148264
     atom   16 type  1   force =     0.00000000   -0.00153854   -0.00148077
     atom   17 type  1   force =    -0.00113495   -0.00194632   -0.00090168
     atom   18 type  1   force =     0.00113208    0.00194524   -0.00089772
     atom   19 type  1   force =    -0.00113208    0.00194524   -0.00089772
     atom   20 type  1   force =     0.00113495   -0.00194632   -0.00090168
     atom   21 type  1   force =    -0.00113494   -0.00194634   -0.00090168
     atom   22 type  1   force =     0.00113208    0.00194525   -0.00089772
     atom   23 type  1   force =    -0.00113208    0.00194525   -0.00089772
     atom   24 type  1   force =     0.00113494   -0.00194634   -0.00090168

     Total force =     0.010719     Total SCF correction =     0.000168


     Computing stress (Cartesian axis) and pressure

          total   stress  (Ry/bohr**3)                   (kbar)     P=        8.11
   0.00002956   0.00000000   0.00000000            4.35        0.00        0.00
   0.00000000   0.00006262   0.00000003            0.00        9.21        0.00
   0.00000000   0.00000003   0.00007331            0.00        0.00       10.78

     Energy error            =      3.3E-04 Ry
     Gradient error          =      3.1E-03 Ry/Bohr

     number of scf cycles    =   7
     number of bfgs steps    =   6

     energy             old  =    -276.0187536217 Ry
     energy             new  =    -276.0190840890 Ry

     CASE: energy            _new < energy            _old

     new trust radius        =       0.0108726358 bohr
     new conv_thr            =       0.0000000033 Ry


ATOMIC_POSITIONS (crystal)
O                0.0000000000        0.6664338364        0.0587303852
O                0.0000000000        0.3335682693        0.5587238842
O                0.5000000000        0.1664339006        0.0587303577
O                0.5000000000        0.8335682569        0.5587238656
O                0.5000000000        0.8346253508        0.9342448574
O                0.5000000000        0.1653805058        0.4342353276
O                0.0000000000        0.3346253700        0.9342448414
O                0.0000000000        0.6653804844        0.4342353285
H                0.0000000000        0.6649439290        0.2030770421
H                0.0000000000        0.3350543352        0.7030754816
H                0.5000000000        0.1649439986        0.2030770027
H                0.5000000000        0.8350543068        0.7030754630
H                0.0000000000        0.5370129471        0.0148530566
H                0.0000000000        0.4629847320        0.5148522317
H                0.5000000000        0.0370130040        0.0148530132
H                0.5000000000        0.9629847192        0.5148522206
H                0.6887365501        0.7683932224        0.9835521008
H                0.3112614925        0.2316047854        0.4835518428
H                0.6887385075        0.2316047854        0.4835518428
H                0.3112634499        0.7683932224        0.9835521008
H                0.1887365636        0.2683932531        0.9835520862
H                0.8112614848        0.7316047660        0.4835518234
H                0.1887385152        0.7316047660        0.4835518234
H                0.8112634364        0.2683932531        0.9835520862



     Writing config-only to output data dir ./iceIh/iceIh.save/ :
     XML data file
     NEW-OLD atomic charge density approx. for the potential

     total cpu time spent up to now is      646.7 secs

     per-process dynamical memory:    59.2 Mb

     Self-consistent Calculation

     iteration #  1     ecut=    90.00 Ry     beta= 0.70
     Davidson diagonalization with overlap
     ethr =  1.00E-06,  avg # of iterations =  4.0

     total cpu time spent up to now is      659.4 secs

     total energy              =    -276.01934737 Ry
     estimated scf accuracy    <       0.00007911 Ry

     iteration #  2     ecut=    90.00 Ry     beta= 0.70
     Davidson diagonalization with overlap
     ethr =  1.24E-07,  avg # of iterations =  2.0

     total cpu time spent up to now is      667.9 secs

     total energy              =    -276.01935929 Ry
     estimated scf accuracy    <       0.00000854 Ry

     iteration #  3     ecut=    90.00 Ry     beta= 0.70
     Davidson diagonalization with overlap
     ethr =  1.33E-08,  avg # of iterations =  3.0

     total cpu time spent up to now is      678.2 secs

     total energy              =    -276.01936149 Ry
     estimated scf accuracy    <       0.00000338 Ry

     iteration #  4     ecut=    90.00 Ry     beta= 0.70
     Davidson diagonalization with overlap
     ethr =  5.29E-09,  avg # of iterations =  2.4

     total cpu time spent up to now is      686.6 secs

     total energy              =    -276.01936208 Ry
     estimated scf accuracy    <       0.00000009 Ry

     iteration #  5     ecut=    90.00 Ry     beta= 0.70
     Davidson diagonalization with overlap
     ethr =  1.36E-10,  avg # of iterations =  5.8

     total cpu time spent up to now is      701.0 secs

     total energy              =    -276.01936212 Ry
     estimated scf accuracy    <       0.00000022 Ry

     iteration #  6     ecut=    90.00 Ry     beta= 0.70
     Davidson diagonalization with overlap
     ethr =  1.36E-10,  avg # of iterations =  3.0

     total cpu time spent up to now is      711.3 secs

     total energy              =    -276.01936215 Ry
     estimated scf accuracy    <          4.6E-09 Ry

     iteration #  7     ecut=    90.00 Ry     beta= 0.70
     Davidson diagonalization with overlap
     ethr =  7.21E-12,  avg # of iterations =  4.9

     total cpu time spent up to now is      724.8 secs

     total energy              =    -276.01936216 Ry
     estimated scf accuracy    <          8.2E-09 Ry

     iteration #  8     ecut=    90.00 Ry     beta= 0.70
     Davidson diagonalization with overlap
     ethr =  7.21E-12,  avg # of iterations =  2.0

     total cpu time spent up to now is      732.4 secs

     End of self-consistent calculation

     Number of k-points >= 100: set verbosity='high' to print the bands.

     highest occupied level (ev):    -2.7950

!    total energy              =    -276.01936216 Ry
     estimated scf accuracy    <          2.2E-09 Ry

     The total energy is the sum of the following terms:
     one-electron contribution =    -222.48992351 Ry
     hartree contribution      =     133.25041654 Ry
     xc contribution           =     -67.86484885 Ry
     ewald contribution        =    -118.91500633 Ry

     convergence has been achieved in   8 iterations

     Forces acting on atoms (cartesian axes, Ry/au):

     atom    1 type  2   force =     0.00000000    0.00134484   -0.00003886
     atom    2 type  2   force =     0.00000000   -0.00139373    0.00004871
     atom    3 type  2   force =     0.00000000    0.00134469   -0.00003902
     atom    4 type  2   force =     0.00000000   -0.00139374    0.00004873
     atom    5 type  2   force =     0.00000000   -0.00117453    0.00109695
     atom    6 type  2   force =     0.00000000    0.00119676    0.00110275
     atom    7 type  2   force =     0.00000000   -0.00117456    0.00109696
     atom    8 type  2   force =     0.00000000    0.00119674    0.00110274
     atom    9 type  1   force =     0.00000000   -0.00023794   -0.00060583
     atom   10 type  1   force =     0.00000000    0.00023537   -0.00065436
     atom   11 type  1   force =     0.00000000   -0.00023798   -0.00060571
     atom   12 type  1   force =     0.00000000    0.00023538   -0.00065437
     atom   13 type  1   force =     0.00000000    0.00112611   -0.00009915
     atom   14 type  1   force =     0.00000000   -0.00109043   -0.00012064
     atom   15 type  1   force =     0.00000000    0.00112620   -0.00009906
     atom   16 type  1   force =     0.00000000   -0.00109040   -0.00012064
     atom   17 type  1   force =     0.00009580   -0.00084910   -0.00017951
     atom   18 type  1   force =    -0.00008687    0.00084590   -0.00018530
     atom   19 type  1   force =     0.00008687    0.00084590   -0.00018530
     atom   20 type  1   force =    -0.00009580   -0.00084910   -0.00017951
     atom   21 type  1   force =     0.00009577   -0.00084911   -0.00017952
     atom   22 type  1   force =    -0.00008687    0.00084592   -0.00018528
     atom   23 type  1   force =     0.00008687    0.00084592   -0.00018528
     atom   24 type  1   force =    -0.00009577   -0.00084911   -0.00017952

     Total force =     0.005552     Total SCF correction =     0.000060


     Computing stress (Cartesian axis) and pressure

          total   stress  (Ry/bohr**3)                   (kbar)     P=        8.40
   0.00004216   0.00000000   0.00000000            6.20        0.00        0.00
   0.00000000   0.00006385  -0.00000002            0.00        9.39       -0.00
   0.00000000  -0.00000002   0.00006525            0.00       -0.00        9.60

     Energy error            =      2.8E-04 Ry
     Gradient error          =      1.4E-03 Ry/Bohr

     number of scf cycles    =   8
     number of bfgs steps    =   7

     energy             old  =    -276.0190840890 Ry
     energy             new  =    -276.0193621558 Ry

     CASE: energy            _new < energy            _old

     new trust radius        =       0.0055243895 bohr
     new conv_thr            =       0.0000000028 Ry


ATOMIC_POSITIONS (crystal)
O                0.0000000000        0.6666611307        0.0587445512
O                0.0000000000        0.3333364789        0.5587456314
O                0.5000000000        0.1666611746        0.0587445137
O                0.5000000000        0.8333364668        0.5587456170
O                0.5000000000        0.8346701834        0.9346585383
O                0.5000000000        0.1653387961        0.4346481418
O                0.0000000000        0.3346701972        0.9346585216
O                0.0000000000        0.6653387740        0.4346481463
H                0.0000000000        0.6649902256        0.2030613705
H                0.0000000000        0.3350072748        0.7030541366
H                0.5000000000        0.1649902928        0.2030613479
H                0.5000000000        0.8350072471        0.7030541193
H                0.0000000000        0.5373192792        0.0146364262
H                0.0000000000        0.4626814668        0.5146331908
H                0.5000000000        0.0373193364        0.0146363888
H                0.5000000000        0.9626814581        0.5146331785
H                0.6886024923        0.7680333115        0.9834547777
H                0.3113965918        0.2319642365        0.4834542999
H                0.6886034082        0.2319642365        0.4834542999
H                0.3113975077        0.7680333115        0.9834547777
H                0.1886025053        0.2680333405        0.9834547623
H                0.8113965815        0.7319642203        0.4834542830
H                0.1886034185        0.7319642203        0.4834542830
H                0.8113974947        0.2680333405        0.9834547623



     Writing config-only to output data dir ./iceIh/iceIh.save/ :
     XML data file
     NEW-OLD atomic charge density approx. for the potential

     total cpu time spent up to now is      740.9 secs

     per-process dynamical memory:    59.2 Mb

     Self-consistent Calculation

     iteration #  1     ecut=    90.00 Ry     beta= 0.70
     Davidson diagonalization with overlap
     ethr =  1.00E-06,  avg # of iterations =  3.0

     Threshold (ethr) on eigenvalues was too large:
     Diagonalizing with lowered threshold

     Davidson diagonalization with overlap
     ethr =  3.95E-08,  avg # of iterations =  2.2

     total cpu time spent up to now is      760.1 secs

     total energy              =    -276.01941500 Ry
     estimated scf accuracy    <       0.00002889 Ry

     iteration #  2     ecut=    90.00 Ry     beta= 0.70
     Davidson diagonalization with overlap
     ethr =  4.51E-08,  avg # of iterations =  2.0

     total cpu time spent up to now is      768.8 secs

     total energy              =    -276.01941918 Ry
     estimated scf accuracy    <       0.00000489 Ry

     iteration #  3     ecut=    90.00 Ry     beta= 0.70
     Davidson diagonalization with overlap
     ethr =  7.64E-09,  avg # of iterations =  3.0

     total cpu time spent up to now is      778.7 secs

     total energy              =    -276.01942058 Ry
     estimated scf accuracy    <       0.00000097 Ry

     iteration #  4     ecut=    90.00 Ry     beta= 0.70
     Davidson diagonalization with overlap
     ethr =  1.51E-09,  avg # of iterations =  2.1

     total cpu time spent up to now is      786.7 secs

     total energy              =    -276.01942070 Ry
     estimated scf accuracy    <       0.00000005 Ry

     iteration #  5     ecut=    90.00 Ry     beta= 0.70
     Davidson diagonalization with overlap
     ethr =  7.16E-11,  avg # of iterations =  5.0

     total cpu time spent up to now is      799.5 secs

     total energy              =    -276.01942071 Ry
     estimated scf accuracy    <       0.00000008 Ry

     iteration #  6     ecut=    90.00 Ry     beta= 0.70
     Davidson diagonalization with overlap
     ethr =  7.16E-11,  avg # of iterations =  3.0

     total cpu time spent up to now is      809.4 secs

     End of self-consistent calculation

     Number of k-points >= 100: set verbosity='high' to print the bands.

     highest occupied level (ev):    -2.7989

!    total energy              =    -276.01942073 Ry
     estimated scf accuracy    <          7.4E-10 Ry

     The total energy is the sum of the following terms:
     one-electron contribution =    -222.51006988 Ry
     hartree contribution      =     133.25957295 Ry
     xc contribution           =     -67.86668404 Ry
     ewald contribution        =    -118.90223976 Ry

     convergence has been achieved in   6 iterations

     Forces acting on atoms (cartesian axes, Ry/au):

     atom    1 type  2   force =     0.00000000    0.00092342   -0.00035563
     atom    2 type  2   force =     0.00000000   -0.00087432   -0.00041915
     atom    3 type  2   force =     0.00000000    0.00092354   -0.00035547
     atom    4 type  2   force =     0.00000000   -0.00087428   -0.00041919
     atom    5 type  2   force =     0.00000000   -0.00142007    0.00002419
     atom    6 type  2   force =     0.00000000    0.00140747   -0.00000134
     atom    7 type  2   force =     0.00000000   -0.00142003    0.00002419
     atom    8 type  2   force =     0.00000000    0.00140748   -0.00000132
     atom    9 type  1   force =     0.00000000   -0.00030754   -0.00048075
     atom   10 type  1   force =     0.00000000    0.00030789   -0.00041029
     atom   11 type  1   force =     0.00000000   -0.00030759   -0.00048087
     atom   12 type  1   force =     0.00000000    0.00030791   -0.00041027
     atom   13 type  1   force =     0.00000000    0.00075743    0.00039982
     atom   14 type  1   force =     0.00000000   -0.00081166    0.00041382
     atom   15 type  1   force =     0.00000000    0.00075731    0.00039984
     atom   16 type  1   force =     0.00000000   -0.00081170    0.00041384
     atom   17 type  1   force =     0.00053519   -0.00031021    0.00020454
     atom   18 type  1   force =    -0.00054501    0.00031891    0.00021010
     atom   19 type  1   force =     0.00054501    0.00031891    0.00021010
     atom   20 type  1   force =    -0.00053519   -0.00031021    0.00020454
     atom   21 type  1   force =     0.00053519   -0.00031024    0.00020455
     atom   22 type  1   force =    -0.00054498    0.00031891    0.00021011
     atom   23 type  1   force =     0.00054498    0.00031891    0.00021011
     atom   24 type  1   force =    -0.00053519   -0.00031024    0.00020455

     Total force =     0.004428     Total SCF correction =     0.000059


     Computing stress (Cartesian axis) and pressure

          total   stress  (Ry/bohr**3)                   (kbar)     P=        8.65
   0.00004936   0.00000000   0.00000000            7.26        0.00        0.00
   0.00000000   0.00006402   0.00000010            0.00        9.42        0.01
   0.00000000   0.00000010   0.00006301            0.00        0.01        9.27

     Energy error            =      5.9E-05 Ry
     Gradient error          =      1.4E-03 Ry/Bohr

     number of scf cycles    =   9
     number of bfgs steps    =   8

     energy             old  =    -276.0193621558 Ry
     energy             new  =    -276.0194207285 Ry

     CASE: energy            _new < energy            _old

     new trust radius        =       0.0024694530 bohr
     new conv_thr            =       0.0000000010 Ry


ATOMIC_POSITIONS (crystal)
O                0.0000000000        0.6668037550        0.0587131981
O                0.0000000000        0.3331974718        0.5587092149
O                0.5000000000        0.1668038049        0.0587131757
O                0.5000000000        0.8331974636        0.5587091985
O                0.5000000000        0.8345736335        0.9347942752
O                0.5000000000        0.1654350144        0.4347810010
O                0.0000000000        0.3345736493        0.9347942585
O                0.0000000000        0.6654349937        0.4347810092
H                0.0000000000        0.6649832044        0.2030197313
H                0.0000000000        0.3350141056        0.7030182757
H                0.5000000000        0.1649832662        0.2030197012
H                0.5000000000        0.8350140799        0.7030182613
H                0.0000000000        0.5374863548        0.0145988095
H                0.0000000000        0.4625099872        0.5145964319
H                0.5000000000        0.0374863994        0.0145987750
H                0.5000000000        0.9625099768        0.5145964214
H                0.6886330688        0.7678873291        0.9834422698
H                0.3113646669        0.2321108756        0.4834423275
H                0.6886353331        0.2321108756        0.4834423275
H                0.3113669312        0.7678873291        0.9834422698
H                0.1886330818        0.2678873546        0.9834422544
H                0.8113646605        0.7321108604        0.4834423121
H                0.1886353395        0.7321108604        0.4834423121
H                0.8113669182        0.2678873546        0.9834422544



     Writing config-only to output data dir ./iceIh/iceIh.save/ :
     XML data file
     NEW-OLD atomic charge density approx. for the potential

     total cpu time spent up to now is      818.0 secs

     per-process dynamical memory:    60.0 Mb

     Self-consistent Calculation

     iteration #  1     ecut=    90.00 Ry     beta= 0.70
     Davidson diagonalization with overlap
     ethr =  1.00E-06,  avg # of iterations =  2.0

     Threshold (ethr) on eigenvalues was too large:
     Diagonalizing with lowered threshold

     Davidson diagonalization with overlap
     ethr =  9.62E-09,  avg # of iterations =  3.0

     total cpu time spent up to now is      837.3 secs

     total energy              =    -276.01944120 Ry
     estimated scf accuracy    <       0.00000803 Ry

     iteration #  2     ecut=    90.00 Ry     beta= 0.70
     Davidson diagonalization with overlap
     ethr =  1.26E-08,  avg # of iterations =  3.0

     total cpu time spent up to now is      847.7 secs

     total energy              =    -276.01944252 Ry
     estimated scf accuracy    <       0.00000459 Ry

     iteration #  3     ecut=    90.00 Ry     beta= 0.70
     Davidson diagonalization with overlap
     ethr =  7.18E-09,  avg # of iterations =  3.0

     total cpu time spent up to now is      857.1 secs

     total energy              =    -276.01944363 Ry
     estimated scf accuracy    <       0.00000009 Ry

     iteration #  4     ecut=    90.00 Ry     beta= 0.70
     Davidson diagonalization with overlap
     ethr =  1.35E-10,  avg # of iterations =  5.0

     total cpu time spent up to now is      869.1 secs

     total energy              =    -276.01944363 Ry
     estimated scf accuracy    <       0.00000009 Ry

     iteration #  5     ecut=    90.00 Ry     beta= 0.70
     Davidson diagonalization with overlap
     ethr =  1.35E-10,  avg # of iterations =  3.8

     total cpu time spent up to now is      880.3 secs

     total energy              =    -276.01944367 Ry
     estimated scf accuracy    <       0.00000004 Ry

     iteration #  6     ecut=    90.00 Ry     beta= 0.70
     Davidson diagonalization with overlap
     ethr =  5.54E-11,  avg # of iterations =  2.0

     total cpu time spent up to now is      888.2 secs

     total energy              =    -276.01944367 Ry
     estimated scf accuracy    <          5.1E-09 Ry

     iteration #  7     ecut=    90.00 Ry     beta= 0.70
     Davidson diagonalization with overlap
     ethr =  7.93E-12,  avg # of iterations =  3.8

     total cpu time spent up to now is      898.0 secs

     End of self-consistent calculation

     Number of k-points >= 100: set verbosity='high' to print the bands.

     highest occupied level (ev):    -2.8008

!    total energy              =    -276.01944367 Ry
     estimated scf accuracy    <          3.6E-11 Ry

     The total energy is the sum of the following terms:
     one-electron contribution =    -222.51836615 Ry
     hartree contribution      =     133.26327042 Ry
     xc contribution           =     -67.86749670 Ry
     ewald contribution        =    -118.89685124 Ry

     convergence has been achieved in   7 iterations

     Forces acting on atoms (cartesian axes, Ry/au):

     atom    1 type  2   force =     0.00000000    0.00051539   -0.00027399
     atom    2 type  2   force =     0.00000000   -0.00055844   -0.00018829
     atom    3 type  2   force =     0.00000000    0.00051528   -0.00027412
     atom    4 type  2   force =     0.00000000   -0.00055847   -0.00018825
     atom    5 type  2   force =     0.00000000   -0.00110214   -0.00043810
     atom    6 type  2   force =     0.00000000    0.00112242   -0.00043505
     atom    7 type  2   force =     0.00000000   -0.00110217   -0.00043808
     atom    8 type  2   force =     0.00000000    0.00112241   -0.00043508
     atom    9 type  1   force =     0.00000000   -0.00011755   -0.00031267
     atom   10 type  1   force =     0.00000000    0.00011978   -0.00034157
     atom   11 type  1   force =     0.00000000   -0.00011759   -0.00031259
     atom   12 type  1   force =     0.00000000    0.00011980   -0.00034159
     atom   13 type  1   force =     0.00000000    0.00052632    0.00034464
     atom   14 type  1   force =     0.00000000   -0.00049934    0.00033122
     atom   15 type  1   force =     0.00000000    0.00052639    0.00034472
     atom   16 type  1   force =     0.00000000   -0.00049930    0.00033122
     atom   17 type  1   force =     0.00053458   -0.00020934    0.00033263
[...]
     atom   18 type  1   force =     0.00057391    0.00013179   -0.00025161
     atom   19 type  1   force =    -0.00057391    0.00013179   -0.00025161
     atom   20 type  1   force =     0.00057260   -0.00006363   -0.00031211
     atom   21 type  1   force =    -0.00057250   -0.00006364   -0.00031211
     atom   22 type  1   force =     0.00057397    0.00013175   -0.00025165
     atom   23 type  1   force =    -0.00057397    0.00013175   -0.00025165
     atom   24 type  1   force =     0.00057250   -0.00006364   -0.00031211

     Total force =     0.002659     Total SCF correction =     0.000050


     Computing stress (Cartesian axis) and pressure

          total   stress  (Ry/bohr**3)                   (kbar)     P=        8.35
   0.00005225   0.00000000   0.00000000            7.69        0.00        0.00
   0.00000000   0.00005941   0.00000015            0.00        8.74        0.02
   0.00000000   0.00000015   0.00005860            0.00        0.02        8.62

     Energy error            =      2.1E-05 Ry
     Gradient error          =      5.7E-04 Ry/Bohr

     number of scf cycles    =  33
     number of bfgs steps    =  32

     energy             old  =    -276.0195770551 Ry
     energy             new  =    -276.0195979581 Ry

     CASE: energy            _new < energy            _old

     new trust radius        =       0.0045384280 bohr
     new conv_thr            =       0.0000000010 Ry


ATOMIC_POSITIONS (crystal)
O                0.0000000000        0.6609537443        0.0584964675
O                0.0000000000        0.3390706920        0.5586760608
O                0.5000000000        0.1609537368        0.0584964861
O                0.5000000000        0.8390706827        0.5586761207
O                0.5000000000        0.8278520552        0.9345471153
O                0.5000000000        0.1721556328        0.4343783366
O                0.0000000000        0.3278520377        0.9345471564
O                0.0000000000        0.6721557211        0.4343782801
H                0.0000000000        0.6625917702        0.2027826416
H                0.0000000000        0.3374162267        0.7029626225
H                0.5000000000        0.1625916410        0.2027826710
H                0.5000000000        0.8374162298        0.7029626836
H                0.0000000000        0.5311139998        0.0166314864
H                0.0000000000        0.4688967874        0.5167943717
H                0.5000000000        0.0311140383        0.0166314135
H                0.5000000000        0.9688967877        0.5167944371
H                0.6888741399        0.7610221097        0.9827316743
H                0.3111543648        0.2389524264        0.4826337186
H                0.6888456352        0.2389524264        0.4826337186
H                0.3111258601        0.7610221097        0.9827316743
H                0.1888741245        0.2610220970        0.9827317327
H                0.8111543587        0.7389524751        0.4826337320
H                0.1888456413        0.7389524751        0.4826337320
H                0.8111258755        0.2610220970        0.9827317327



     Writing config-only to output data dir ./iceIh/iceIh.save/ :
     XML data file
     NEW-OLD atomic charge density approx. for the potential

     total cpu time spent up to now is     2562.7 secs

     per-process dynamical memory:    60.0 Mb

     Self-consistent Calculation

     iteration #  1     ecut=    90.00 Ry     beta= 0.70
     Davidson diagonalization with overlap
     ethr =  1.00E-06,  avg # of iterations =  3.0

     Threshold (ethr) on eigenvalues was too large:
     Diagonalizing with lowered threshold

     Davidson diagonalization with overlap
     ethr =  1.26E-08,  avg # of iterations =  3.4

     total cpu time spent up to now is     2584.6 secs

     total energy              =    -276.01960532 Ry
     estimated scf accuracy    <       0.00001150 Ry

     iteration #  2     ecut=    90.00 Ry     beta= 0.70
     Davidson diagonalization with overlap
     ethr =  1.80E-08,  avg # of iterations =  2.0

     total cpu time spent up to now is     2592.6 secs

     total energy              =    -276.01960698 Ry
     estimated scf accuracy    <       0.00000054 Ry

     iteration #  3     ecut=    90.00 Ry     beta= 0.70
     Davidson diagonalization with overlap
     ethr =  8.44E-10,  avg # of iterations =  2.1

     total cpu time spent up to now is     2601.4 secs

     total energy              =    -276.01960708 Ry
     estimated scf accuracy    <       0.00000005 Ry

     iteration #  4     ecut=    90.00 Ry     beta= 0.70
     Davidson diagonalization with overlap
     ethr =  8.43E-11,  avg # of iterations =  3.1

     total cpu time spent up to now is     2611.6 secs

     total energy              =    -276.01960710 Ry
     estimated scf accuracy    <       0.00000002 Ry

     iteration #  5     ecut=    90.00 Ry     beta= 0.70
     Davidson diagonalization with overlap
     ethr =  2.50E-11,  avg # of iterations =  2.6

     total cpu time spent up to now is     2620.7 secs

     End of self-consistent calculation

     Number of k-points >= 100: set verbosity='high' to print the bands.

     highest occupied level (ev):    -2.8084

!    total energy              =    -276.01960710 Ry
     estimated scf accuracy    <          4.2E-10 Ry

     The total energy is the sum of the following terms:
     one-electron contribution =    -222.41004851 Ry
     hartree contribution      =     133.20761809 Ry
     xc contribution           =     -67.86565149 Ry
     ewald contribution        =    -118.95152518 Ry

     convergence has been achieved in   5 iterations

     Forces acting on atoms (cartesian axes, Ry/au):

     atom    1 type  2   force =     0.00000000    0.00000189    0.00018263
     atom    2 type  2   force =     0.00000000    0.00002386    0.00004126
     atom    3 type  2   force =     0.00000000    0.00000200    0.00018283
     atom    4 type  2   force =     0.00000000    0.00002391    0.00004118
     atom    5 type  2   force =     0.00000000    0.00003557    0.00010878
     atom    6 type  2   force =     0.00000000   -0.00007582    0.00016253
     atom    7 type  2   force =     0.00000000    0.00003560    0.00010874
     atom    8 type  2   force =     0.00000000   -0.00007585    0.00016261
     atom    9 type  1   force =     0.00000000    0.00012990    0.00011667
     atom   10 type  1   force =     0.00000000   -0.00012096    0.00011773
     atom   11 type  1   force =     0.00000000    0.00012997    0.00011656
     atom   12 type  1   force =     0.00000000   -0.00012100    0.00011776
     atom   13 type  1   force =     0.00000000   -0.00003164   -0.00010056
     atom   14 type  1   force =     0.00000000   -0.00004287   -0.00011980
     atom   15 type  1   force =     0.00000000   -0.00003183   -0.00010059
     atom   16 type  1   force =     0.00000000   -0.00004295   -0.00011981
     atom   17 type  1   force =    -0.00014363   -0.00000381   -0.00014818
     atom   18 type  1   force =     0.00014709    0.00004387   -0.00010642
     atom   19 type  1   force =    -0.00014709    0.00004387   -0.00010642
     atom   20 type  1   force =     0.00014363   -0.00000381   -0.00014818
     atom   21 type  1   force =    -0.00014359   -0.00000381   -0.00014820
     atom   22 type  1   force =     0.00014711    0.00004385   -0.00010645
     atom   23 type  1   force =    -0.00014711    0.00004385   -0.00010645
     atom   24 type  1   force =     0.00014359   -0.00000381   -0.00014820

     Total force =     0.000803     Total SCF correction =     0.000044


     Computing stress (Cartesian axis) and pressure

          total   stress  (Ry/bohr**3)                   (kbar)     P=        8.41
   0.00005484   0.00000000   0.00000000            8.07        0.00        0.00
   0.00000000   0.00006000  -0.00000004            0.00        8.83       -0.01
   0.00000000  -0.00000004   0.00005677            0.00       -0.01        8.35

     Energy error            =      9.1E-06 Ry
     Gradient error          =      1.8E-04 Ry/Bohr

     number of scf cycles    =  34
     number of bfgs steps    =  33

     energy             old  =    -276.0195979581 Ry
     energy             new  =    -276.0196071007 Ry

     CASE: energy            _new < energy            _old

     new trust radius        =       0.0047705545 bohr
     new conv_thr            =       0.0000000010 Ry


ATOMIC_POSITIONS (crystal)
O                0.0000000000        0.6612454067        0.0585345405
O                0.0000000000        0.3387757399        0.5586987442
O                0.5000000000        0.1612453974        0.0585345703
O                0.5000000000        0.8387757340        0.5586987982
O                0.5000000000        0.8281477210        0.9345642514
O                0.5000000000        0.1718578368        0.4344081652
O                0.0000000000        0.3281477030        0.9345642852
O                0.0000000000        0.6718579167        0.4344081214
H                0.0000000000        0.6627773349        0.2028276784
H                0.0000000000        0.3372324427        0.7029977875
H                0.5000000000        0.1627772170        0.2028277042
H                0.5000000000        0.8372324441        0.7029978485
H                0.0000000000        0.5314341124        0.0165523085
H                0.0000000000        0.4685692853        0.5167057675
H                0.5000000000        0.0314341318        0.0165522405
H                0.5000000000        0.9685692818        0.5167058279
H                0.6888323671        0.7612855339        0.9827225108
H                0.3111985899        0.2386945225        0.4826328130
H                0.6888014101        0.2386945225        0.4826328130
H                0.3111676329        0.7612855339        0.9827225108
H                0.1888323583        0.2612855220        0.9827225642
H                0.8111985861        0.7386945689        0.4826328253
H                0.1888014139        0.7386945689        0.4826328253
H                0.8111676417        0.2612855220        0.9827225642



     Writing config-only to output data dir ./iceIh/iceIh.save/ :
     XML data file
     NEW-OLD atomic charge density approx. for the potential

     total cpu time spent up to now is     2629.2 secs

     per-process dynamical memory:    60.0 Mb

     Self-consistent Calculation

     iteration #  1     ecut=    90.00 Ry     beta= 0.70
     Davidson diagonalization with overlap
     ethr =  1.00E-06,  avg # of iterations =  3.0

     Threshold (ethr) on eigenvalues was too large:
     Diagonalizing with lowered threshold

     Davidson diagonalization with overlap
     ethr =  2.02E-08,  avg # of iterations =  3.0

     total cpu time spent up to now is     2650.1 secs

     total energy              =    -276.01960639 Ry
     estimated scf accuracy    <       0.00001586 Ry

     iteration #  2     ecut=    90.00 Ry     beta= 0.70
     Davidson diagonalization with overlap
     ethr =  2.48E-08,  avg # of iterations =  2.0

     total cpu time spent up to now is     2658.0 secs

     total energy              =    -276.01960858 Ry
     estimated scf accuracy    <       0.00000083 Ry

     iteration #  3     ecut=    90.00 Ry     beta= 0.70
     Davidson diagonalization with overlap
     ethr =  1.29E-09,  avg # of iterations =  2.7

     total cpu time spent up to now is     2667.8 secs

     total energy              =    -276.01960878 Ry
     estimated scf accuracy    <       0.00000022 Ry

     iteration #  4     ecut=    90.00 Ry     beta= 0.70
     Davidson diagonalization with overlap
     ethr =  3.40E-10,  avg # of iterations =  3.0

     total cpu time spent up to now is     2677.2 secs

     total energy              =    -276.01960883 Ry
     estimated scf accuracy    <       0.00000002 Ry

     iteration #  5     ecut=    90.00 Ry     beta= 0.70
     Davidson diagonalization with overlap
     ethr =  3.30E-11,  avg # of iterations =  2.0

     total cpu time spent up to now is     2686.2 secs

     total energy              =    -276.01960883 Ry
     estimated scf accuracy    <          3.5E-09 Ry

     iteration #  6     ecut=    90.00 Ry     beta= 0.70
     Davidson diagonalization with overlap
     ethr =  5.46E-12,  avg # of iterations =  3.5

     total cpu time spent up to now is     2696.0 secs

     End of self-consistent calculation

     Number of k-points >= 100: set verbosity='high' to print the bands.

     highest occupied level (ev):    -2.8085

!    total energy              =    -276.01960883 Ry
     estimated scf accuracy    <          5.9E-11 Ry

     The total energy is the sum of the following terms:
     one-electron contribution =    -222.42082271 Ry
     hartree contribution      =     133.21308385 Ry
     xc contribution           =     -67.86614734 Ry
     ewald contribution        =    -118.94572263 Ry

     convergence has been achieved in   6 iterations

     Forces acting on atoms (cartesian axes, Ry/au):

     atom    1 type  2   force =     0.00000000   -0.00002525    0.00002994
     atom    2 type  2   force =     0.00000000    0.00000378   -0.00001592
     atom    3 type  2   force =     0.00000000   -0.00002529    0.00002991
     atom    4 type  2   force =     0.00000000    0.00000376   -0.00001593
     atom    5 type  2   force =     0.00000000   -0.00001242   -0.00002349
     atom    6 type  2   force =     0.00000000    0.00000338    0.00003562
     atom    7 type  2   force =     0.00000000   -0.00001241   -0.00002351
     atom    8 type  2   force =     0.00000000    0.00000333    0.00003566
     atom    9 type  1   force =     0.00000000    0.00001413    0.00007912
     atom   10 type  1   force =     0.00000000   -0.00001285    0.00003124
     atom   11 type  1   force =     0.00000000    0.00001418    0.00007914
     atom   12 type  1   force =     0.00000000   -0.00001288    0.00003121
     atom   13 type  1   force =     0.00000000    0.00001649    0.00002813
     atom   14 type  1   force =     0.00000000   -0.00003256   -0.00001130
     atom   15 type  1   force =     0.00000000    0.00001647    0.00002816
     atom   16 type  1   force =     0.00000000   -0.00003256   -0.00001132
     atom   17 type  1   force =     0.00000973    0.00001511   -0.00005365
     atom   18 type  1   force =    -0.00000703    0.00000756   -0.00002300
     atom   19 type  1   force =     0.00000703    0.00000756   -0.00002300
     atom   20 type  1   force =    -0.00000973    0.00001511   -0.00005365
     atom   21 type  1   force =     0.00000973    0.00001513   -0.00005367
     atom   22 type  1   force =    -0.00000703    0.00000756   -0.00002301
     atom   23 type  1   force =     0.00000703    0.00000756   -0.00002301
     atom   24 type  1   force =    -0.00000973    0.00001513   -0.00005367

     Total force =     0.000207     Total SCF correction =     0.000025
     SCF correction compared to forces is large: reduce conv_thr to get better values


     Computing stress (Cartesian axis) and pressure

          total   stress  (Ry/bohr**3)                   (kbar)     P=        8.50
   0.00005600   0.00000000   0.00000000            8.24        0.00        0.00
   0.00000000   0.00006021  -0.00000011            0.00        8.86       -0.02
   0.00000000  -0.00000011   0.00005707            0.00       -0.02        8.40

     Energy error            =      1.7E-06 Ry
     Gradient error          =      7.9E-05 Ry/Bohr

     bfgs converged in  35 scf cycles and  34 bfgs steps
     (criteria: energy <  1.0E-04 Ry, force <  1.0E-04 Ry/Bohr)

     End of BFGS Geometry Optimization

     Final energy             =    -276.0196088344 Ry

     File ./iceIh/iceIh.bfgs deleted, as requested
Begin final coordinates

ATOMIC_POSITIONS (crystal)
O                0.0000000000        0.6612454067        0.0585345405
O                0.0000000000        0.3387757399        0.5586987442
O                0.5000000000        0.1612453974        0.0585345703
O                0.5000000000        0.8387757340        0.5586987982
O                0.5000000000        0.8281477210        0.9345642514
O                0.5000000000        0.1718578368        0.4344081652
O                0.0000000000        0.3281477030        0.9345642852
O                0.0000000000        0.6718579167        0.4344081214
H                0.0000000000        0.6627773349        0.2028276784
H                0.0000000000        0.3372324427        0.7029977875
H                0.5000000000        0.1627772170        0.2028277042
H                0.5000000000        0.8372324441        0.7029978485
H                0.0000000000        0.5314341124        0.0165523085
H                0.0000000000        0.4685692853        0.5167057675
H                0.5000000000        0.0314341318        0.0165522405
H                0.5000000000        0.9685692818        0.5167058279
H                0.6888323671        0.7612855339        0.9827225108
H                0.3111985899        0.2386945225        0.4826328130
H                0.6888014101        0.2386945225        0.4826328130
H                0.3111676329        0.7612855339        0.9827225108
H                0.1888323583        0.2612855220        0.9827225642
H                0.8111985861        0.7386945689        0.4826328253
H                0.1888014139        0.7386945689        0.4826328253
H                0.8111676417        0.2612855220        0.9827225642
End final coordinates



     Writing all to output data dir ./iceIh/iceIh.save/ :
     XML data file, charge density, pseudopotentials, collected wavefunctions

     init_run     :      4.20s CPU      4.31s WALL (       1 calls)
     electrons    :   2362.22s CPU   2402.62s WALL (      35 calls)
     update_pot   :      0.42s CPU      0.47s WALL (      34 calls)
     forces       :     18.22s CPU     18.27s WALL (      35 calls)
     stress       :    271.94s CPU    272.10s WALL (      35 calls)

     Called by init_run:
     wfcinit      :      3.85s CPU      3.91s WALL (       1 calls)
     potinit      :      0.01s CPU      0.03s WALL (       1 calls)
     hinit0       :      0.25s CPU      0.26s WALL (       1 calls)

     Called by electrons:
     c_bands      :   2104.93s CPU   2139.50s WALL (     241 calls)
     sum_band     :    253.65s CPU    256.28s WALL (     241 calls)
     v_of_rho     :      2.53s CPU      2.54s WALL (     251 calls)
     newd         :      0.48s CPU      0.49s WALL (     251 calls)
     mix_rho      :      0.34s CPU      0.35s WALL (     241 calls)

     Called by c_bands:
     init_us_2    :     30.30s CPU     31.40s WALL (   63595 calls)
     cegterg      :   2032.40s CPU   2051.41s WALL (   27715 calls)

     Called by *egterg:
     cdiaghg      :    180.19s CPU    180.99s WALL (  101814 calls)
     h_psi        :   1534.88s CPU   1551.68s WALL (  108714 calls)
     s_psi        :     59.08s CPU     59.48s WALL (  108714 calls)
     g_psi        :      5.38s CPU      5.40s WALL (   80884 calls)

     Called by h_psi:
     h_psi:calbec :     93.40s CPU     94.26s WALL (  108714 calls)
     vloc_psi     :   1368.90s CPU   1384.08s WALL (  108714 calls)
     add_vuspsi   :     62.96s CPU     63.52s WALL (  108714 calls)

     General routines
     calbec       :    132.85s CPU    134.07s WALL (  156554 calls)
     fft          :      1.66s CPU      1.68s WALL (    3100 calls)
     ffts         :      0.12s CPU      0.12s WALL (     241 calls)
     fftw         :   1441.43s CPU   1456.90s WALL ( 6417834 calls)

     Parallel routines

     PWSCF        :  44m23.43s CPU  45m13.64s WALL


   This run was terminated on:   0:53:45   1Apr2026            

=------------------------------------------------------------------------------=
   JOB DONE.
=------------------------------------------------------------------------------=
