
     Program PWSCF v.7.3.1 starts on 20Mar2026 at 23:16: 1 

     This program is part of the open-source Quantum ESPRESSO suite
     for quantum simulation of materials; please cite
         "P. Giannozzi et al., J. Phys.:Condens. Matter 21 395502 (2009);
         "P. Giannozzi et al., J. Phys.:Condens. Matter 29 465901 (2017);
         "P. Giannozzi et al., J. Chem. Phys. 152 154105 (2020);
          URL http://www.quantum-espresso.org", 
     in publications or presentations arising from this work. More details at
     http://www.quantum-espresso.org/quote

     Parallel version (MPI), running on   128 processors

     MPI processes distributed on     1 nodes
     237711 MiB available memory on the printing compute node when the environment starts

     Waiting for input...
     Reading input from standard input

     Current dimensions of program PWSCF are:
     Max number of different atomic species (ntypx) = 10
     Max number of k-points (npk) =  40000
     Max angular momentum in pseudopotentials (lmaxx) =  4
     Found identity + ( -0.5000 -0.5000  0.0000) symmetry
     This is a supercell, fractional translations are disabled

     K-points division:     npool     =       4
     R & G space division:  proc/nbgrp/npool/nimage =      32
     Subspace diagonalization in iterative solution of the eigenvalue problem:
     a serial algorithm will be used


     Parallelization info
     --------------------
     sticks:   dense  smooth     PW     G-vecs:    dense   smooth      PW
     Min         103     103     28                 5539     5539     804
     Max         104     104     29                 5546     5546     809
     Sum        3309    3309    905               177325   177325   25783

     Using Slab Decomposition



     bravais-lattice index     =            8
     lattice parameter (alat)  =       8.1672  a.u.
     unit-cell volume          =    1535.9759 (a.u.)^3
     number of atoms/cell      =           24
     number of atomic types    =            2
     number of electrons       =        64.00
     number of Kohn-Sham states=           32
     kinetic-energy cutoff     =      90.0000  Ry
     charge density cutoff     =     360.0000  Ry
     scf convergence threshold =      1.0E-07
     mixing beta               =       0.7000
     number of iterations used =            8  plain     mixing
     Exchange-correlation=  SLA  PW   PBE  PBE
                           (   1   4   3   4   0   0   0)

     celldm(1)=   8.167245  celldm(2)=   1.732119  celldm(3)=   1.627721
     celldm(4)=   0.000000  celldm(5)=   0.000000  celldm(6)=   0.000000

     crystal axes: (cart. coord. in units of alat)
               a(1) = (   1.000000   0.000000   0.000000 )  
               a(2) = (   0.000000   1.732119   0.000000 )  
               a(3) = (   0.000000   0.000000   1.627721 )  

     reciprocal axes: (cart. coord. in units 2 pi/alat)
               b(1) = (  1.000000  0.000000  0.000000 )  
               b(2) = (  0.000000  0.577328  0.000000 )  
               b(3) = (  0.000000  0.000000  0.614356 )  


     PseudoPot. # 1 for H  read from file:
     ./H.pbe-van_ak.UPF
     MD5 check sum: 077eb6d537518a38cb46c6de387227b7
     Pseudo is Ultrasoft, Zval =  1.0
     Generated by new atomic code, or converted to UPF format
     Using radial grid of  615 points,  1 beta functions with: 
                l(1) =   0
     Q(r) pseudized with  8 coefficients,  rinner =    0.800

     PseudoPot. # 2 for O  read from file:
     ./O.pbe-van_ak.UPF
     MD5 check sum: 78c19812648e8988a0fe644b0f25305e
     Pseudo is Ultrasoft, Zval =  6.0
     Generated by new atomic code, or converted to UPF format
     Using radial grid of  737 points,  4 beta functions with: 
                l(1) =   0
                l(2) =   0
                l(3) =   1
                l(4) =   1
     Q(r) pseudized with  8 coefficients,  rinner =    0.800   0.800   0.800


     atomic species   valence    mass     pseudopotential
     H                 1.00     1.00800     H ( 1.00)
     O                 6.00    16.00000     O ( 1.00)

      2 Sym. Ops. (no inversion) found



   Cartesian axes

     site n.     atom                  positions (alat units)
         1        O      tau(   1) = (   0.0000000   1.1515127   0.1027092  )
         2        O      tau(   2) = (   0.0000000   0.5806063   0.9165697  )
         3        O      tau(   3) = (   0.5000000   0.2854532   0.1027092  )
         4        O      tau(   4) = (   0.5000000   1.4466659   0.9165697  )
         5        O      tau(   5) = (   0.5000000   1.4298643   1.5250118  )
         6        O      tau(   6) = (   0.5000000   0.3022548   0.7111513  )
         7        O      tau(   7) = (   0.0000000   0.5638048   1.5250118  )
         8        O      tau(   8) = (   0.0000000   1.1683143   0.7111513  )
         9        H      tau(   9) = (   0.0000000   1.1494343   0.3195216  )
        10        H      tau(  10) = (   0.0000000   0.5826848   1.1333822  )
        11        H      tau(  11) = (   0.5000000   0.2833747   0.3195216  )
        12        H      tau(  12) = (   0.5000000   1.4487443   1.1333822  )
        13        H      tau(  13) = (   0.0000000   0.9289355   0.0297873  )
        14        H      tau(  14) = (   0.0000000   0.8031836   0.8436478  )
        15        H      tau(  15) = (   0.5000000   0.0628759   0.0297873  )
        16        H      tau(  16) = (   0.5000000   1.6692431   0.8436478  )
        17        H      tau(  17) = (   0.6766000   1.3420459   1.5979337  )
        18        H      tau(  18) = (   0.3234000   0.3900732   0.7840732  )
        19        H      tau(  19) = (   0.6766000   0.3900732   0.7840732  )
        20        H      tau(  20) = (   0.3234000   1.3420459   1.5979337  )
        21        H      tau(  21) = (   0.1766000   0.4759863   1.5979337  )
        22        H      tau(  22) = (   0.8234000   1.2561327   0.7840732  )
        23        H      tau(  23) = (   0.1766000   1.2561327   0.7840732  )
        24        H      tau(  24) = (   0.8234000   0.4759863   1.5979337  )

     number of k points=   460

     Number of k-points >= 100: set verbosity='high' to print them.

     Dense  grid:   177325 G-vectors     FFT dimensions: (  50,  90,  81)

     Estimated max dynamical RAM per process >      46.56 MB

     Estimated total dynamical RAM >       5.69 GB

     Initial potential from superposition of free atoms

     starting charge      63.9998, renormalised to      64.0000
     Starting wfcs are   48 randomized atomic wfcs

     total cpu time spent up to now is        4.6 secs

     per-process dynamical memory:    53.9 Mb

     Self-consistent Calculation

     iteration #  1     ecut=    90.00 Ry     beta= 0.70
     Davidson diagonalization with overlap
     ethr =  1.00E-02,  avg # of iterations =  2.0

     total cpu time spent up to now is       13.3 secs

     total energy              =    -274.66294161 Ry
     estimated scf accuracy    <       3.00469735 Ry

     iteration #  2     ecut=    90.00 Ry     beta= 0.70
     Davidson diagonalization with overlap
     ethr =  4.69E-03,  avg # of iterations =  3.0

     total cpu time spent up to now is       24.4 secs

     total energy              =    -275.62666251 Ry
     estimated scf accuracy    <       1.42026726 Ry

     iteration #  3     ecut=    90.00 Ry     beta= 0.70
     Davidson diagonalization with overlap
     ethr =  2.22E-03,  avg # of iterations =  2.0

     total cpu time spent up to now is       32.8 secs

     total energy              =    -275.80640412 Ry
     estimated scf accuracy    <       0.05383736 Ry

     iteration #  4     ecut=    90.00 Ry     beta= 0.70
     Davidson diagonalization with overlap
     ethr =  8.41E-05,  avg # of iterations =  4.0

     total cpu time spent up to now is       45.4 secs

     total energy              =    -275.84589533 Ry
     estimated scf accuracy    <       0.06762315 Ry

     iteration #  5     ecut=    90.00 Ry     beta= 0.70
     Davidson diagonalization with overlap
     ethr =  8.41E-05,  avg # of iterations =  2.0

     negative rho (up, down):  2.752E-08 0.000E+00

     total cpu time spent up to now is       53.4 secs

     total energy              =    -275.84930387 Ry
     estimated scf accuracy    <       0.00972605 Ry

     iteration #  6     ecut=    90.00 Ry     beta= 0.70
     Davidson diagonalization with overlap
     ethr =  1.52E-05,  avg # of iterations =  2.0

     negative rho (up, down):  6.127E-08 0.000E+00

     total cpu time spent up to now is       61.7 secs

     total energy              =    -275.84960865 Ry
     estimated scf accuracy    <       0.00217490 Ry

     iteration #  7     ecut=    90.00 Ry     beta= 0.70
     Davidson diagonalization with overlap
     ethr =  3.40E-06,  avg # of iterations =  2.6

     negative rho (up, down):  4.493E-08 0.000E+00

     total cpu time spent up to now is       71.9 secs

     total energy              =    -275.85048315 Ry
     estimated scf accuracy    <       0.00009027 Ry

     iteration #  8     ecut=    90.00 Ry     beta= 0.70
     Davidson diagonalization with overlap
     ethr =  1.41E-07,  avg # of iterations =  2.9

     negative rho (up, down):  3.771E-08 0.000E+00

     total cpu time spent up to now is       81.4 secs

     total energy              =    -275.85047975 Ry
     estimated scf accuracy    <       0.00009863 Ry

     iteration #  9     ecut=    90.00 Ry     beta= 0.70
     Davidson diagonalization with overlap
     ethr =  1.41E-07,  avg # of iterations =  1.0

     negative rho (up, down):  3.180E-08 0.000E+00

     total cpu time spent up to now is       87.8 secs

     total energy              =    -275.85046610 Ry
     estimated scf accuracy    <       0.00004128 Ry

     iteration # 10     ecut=    90.00 Ry     beta= 0.70
     Davidson diagonalization with overlap
     ethr =  6.45E-08,  avg # of iterations =  2.0

     negative rho (up, down):  3.088E-08 0.000E+00

     total cpu time spent up to now is       96.2 secs

     total energy              =    -275.85047034 Ry
     estimated scf accuracy    <       0.00000295 Ry

     iteration # 11     ecut=    90.00 Ry     beta= 0.70
     Davidson diagonalization with overlap
     ethr =  4.61E-09,  avg # of iterations =  2.7

     negative rho (up, down):  3.025E-08 0.000E+00

     total cpu time spent up to now is      105.8 secs

     End of self-consistent calculation

     Number of k-points >= 100: set verbosity='high' to print the bands.

     highest occupied level (ev):    -2.9234

!    total energy              =    -275.85047106 Ry
     estimated scf accuracy    <       0.00000008 Ry

     The total energy is the sum of the following terms:
     one-electron contribution =    -231.71413368 Ry
     hartree contribution      =     137.35194861 Ry
     xc contribution           =     -68.69713168 Ry
     ewald contribution        =    -112.79115431 Ry

     convergence has been achieved in  11 iterations

     Forces acting on atoms (cartesian axes, Ry/au):

     atom    1 type  2   force =     0.00000000   -0.01493214   -0.12654422
     atom    2 type  2   force =     0.00000000    0.01493122   -0.12635190
     atom    3 type  2   force =     0.00000000   -0.01492699   -0.12654633
     atom    4 type  2   force =     0.00000000    0.01493209   -0.12635192
     atom    5 type  2   force =     0.00000000    0.18997584   -0.13951005
     atom    6 type  2   force =     0.00000000   -0.18994254   -0.13968234
     atom    7 type  2   force =     0.00000000    0.18997588   -0.13950904
     atom    8 type  2   force =     0.00000000   -0.18994319   -0.13968346
     atom    9 type  1   force =     0.00000000   -0.00101196    0.11794736
     atom   10 type  1   force =     0.00000000    0.00099829    0.11796351
     atom   11 type  1   force =     0.00000000   -0.00101167    0.11794672
     atom   12 type  1   force =     0.00000000    0.00099830    0.11796354
     atom   13 type  1   force =     0.00000000    0.01240375    0.00254324
     atom   14 type  1   force =     0.00000000   -0.01241520    0.00254664
     atom   15 type  1   force =     0.00000000    0.01240521    0.00254287
     atom   16 type  1   force =     0.00000000   -0.01241498    0.00254663
     atom   17 type  1   force =     0.15514916   -0.09412482    0.07277598
     atom   18 type  1   force =    -0.15514725    0.09411940    0.07276870
     atom   19 type  1   force =     0.15514725    0.09411940    0.07276870
     atom   20 type  1   force =    -0.15514916   -0.09412482    0.07277598
     atom   21 type  1   force =     0.15514930   -0.09412480    0.07277609
     atom   22 type  1   force =    -0.15514718    0.09411926    0.07276860
     atom   23 type  1   force =     0.15514718    0.09411926    0.07276860
     atom   24 type  1   force =    -0.15514930   -0.09412480    0.07277609

     Total force =     0.805755     Total SCF correction =     0.000198


     Computing stress (Cartesian axis) and pressure

          total   stress  (Ry/bohr**3)                   (kbar)     P=      130.23
   0.00134345   0.00000000   0.00000000          197.63        0.00        0.00
   0.00000000   0.00035802  -0.00000001            0.00       52.67       -0.00
   0.00000000  -0.00000001   0.00095447            0.00       -0.00      140.41


     Writing all to output data dir ./iceIh/iceIh.save/ :
     XML data file, charge density, pseudopotentials, collected wavefunctions

     init_run     :      4.22s CPU      4.30s WALL (       1 calls)
     electrons    :     99.65s CPU    101.22s WALL (       1 calls)
     forces       :      0.52s CPU      0.53s WALL (       1 calls)
     stress       :      7.80s CPU      7.82s WALL (       1 calls)

     Called by init_run:
     wfcinit      :      3.86s CPU      3.91s WALL (       1 calls)
     potinit      :      0.03s CPU      0.04s WALL (       1 calls)
     hinit0       :      0.25s CPU      0.25s WALL (       1 calls)

     Called by electrons:
     c_bands      :     87.87s CPU     89.25s WALL (      11 calls)
     sum_band     :     11.60s CPU     11.71s WALL (      11 calls)
     v_of_rho     :      0.13s CPU      0.14s WALL (      12 calls)
     newd         :      0.02s CPU      0.03s WALL (      12 calls)
     mix_rho      :      0.02s CPU      0.02s WALL (      11 calls)

     Called by c_bands:
     init_us_2    :      1.40s CPU      1.44s WALL (    2875 calls)
     cegterg      :     84.95s CPU     85.73s WALL (    1265 calls)

     Called by *egterg:
     cdiaghg      :      7.42s CPU      7.45s WALL (    4347 calls)
     h_psi        :     67.74s CPU     68.46s WALL (    4462 calls)
     s_psi        :      2.51s CPU      2.52s WALL (    4462 calls)
     g_psi        :      0.22s CPU      0.22s WALL (    3082 calls)

     Called by h_psi:
     h_psi:calbec :      4.04s CPU      4.08s WALL (    4462 calls)
     vloc_psi     :     60.55s CPU     61.21s WALL (    4462 calls)
     add_vuspsi   :      2.67s CPU      2.69s WALL (    4462 calls)

     General routines
     calbec       :      5.52s CPU      5.56s WALL (    6302 calls)
     fft          :      0.30s CPU      0.31s WALL (     140 calls)
     ffts         :      0.01s CPU      0.01s WALL (      11 calls)
     fftw         :     64.14s CPU     64.81s WALL (  285322 calls)

     Parallel routines

     PWSCF        :   1m54.80s CPU   1m59.77s WALL


   This run was terminated on:  23:18: 1  20Mar2026            

=------------------------------------------------------------------------------=
   JOB DONE.
=------------------------------------------------------------------------------=
