
     Program PWSCF v.7.3.1 starts on 21Mar2026 at  0:31:40 

     This program is part of the open-source Quantum ESPRESSO suite
     for quantum simulation of materials; please cite
         "P. Giannozzi et al., J. Phys.:Condens. Matter 21 395502 (2009);
         "P. Giannozzi et al., J. Phys.:Condens. Matter 29 465901 (2017);
         "P. Giannozzi et al., J. Chem. Phys. 152 154105 (2020);
          URL http://www.quantum-espresso.org", 
     in publications or presentations arising from this work. More details at
     http://www.quantum-espresso.org/quote

     Parallel version (MPI), running on   128 processors

     MPI processes distributed on     1 nodes
     237631 MiB available memory on the printing compute node when the environment starts

     Waiting for input...
     Reading input from standard input

     Current dimensions of program PWSCF are:
     Max number of different atomic species (ntypx) = 10
     Max number of k-points (npk) =  40000
     Max angular momentum in pseudopotentials (lmaxx) =  4
     Found identity + ( -0.5000 -0.5000  0.0000) symmetry
     This is a supercell, fractional translations are disabled

     K-points division:     npool     =       4
     R & G space division:  proc/nbgrp/npool/nimage =      32
     Subspace diagonalization in iterative solution of the eigenvalue problem:
     a serial algorithm will be used


     Parallelization info
     --------------------
     sticks:   dense  smooth     PW     G-vecs:    dense   smooth      PW
     Min         104     104     29                 5670     5670     823
     Max         105     105     30                 5677     5677     826
     Sum        3359    3359    935               181567   181567   26385

     Using Slab Decomposition



     bravais-lattice index     =            8
     lattice parameter (alat)  =       8.2353  a.u.
     unit-cell volume          =    1574.6961 (a.u.)^3
     number of atoms/cell      =           24
     number of atomic types    =            2
     number of electrons       =        64.00
     number of Kohn-Sham states=           32
     kinetic-energy cutoff     =      90.0000  Ry
     charge density cutoff     =     360.0000  Ry
     scf convergence threshold =      1.0E-07
     mixing beta               =       0.7000
     number of iterations used =            8  plain     mixing
     Exchange-correlation=  SLA  PW   PBE  PBE
                           (   1   4   3   4   0   0   0)

     celldm(1)=   8.235305  celldm(2)=   1.732119  celldm(3)=   1.627721
     celldm(4)=   0.000000  celldm(5)=   0.000000  celldm(6)=   0.000000

     crystal axes: (cart. coord. in units of alat)
               a(1) = (   1.000000   0.000000   0.000000 )  
               a(2) = (   0.000000   1.732119   0.000000 )  
               a(3) = (   0.000000   0.000000   1.627721 )  

     reciprocal axes: (cart. coord. in units 2 pi/alat)
               b(1) = (  1.000000  0.000000  0.000000 )  
               b(2) = (  0.000000  0.577328  0.000000 )  
               b(3) = (  0.000000  0.000000  0.614356 )  


     PseudoPot. # 1 for H  read from file:
     ./H.pbe-van_ak.UPF
     MD5 check sum: 077eb6d537518a38cb46c6de387227b7
     Pseudo is Ultrasoft, Zval =  1.0
     Generated by new atomic code, or converted to UPF format
     Using radial grid of  615 points,  1 beta functions with: 
                l(1) =   0
     Q(r) pseudized with  8 coefficients,  rinner =    0.800

     PseudoPot. # 2 for O  read from file:
     ./O.pbe-van_ak.UPF
     MD5 check sum: 78c19812648e8988a0fe644b0f25305e
     Pseudo is Ultrasoft, Zval =  6.0
     Generated by new atomic code, or converted to UPF format
     Using radial grid of  737 points,  4 beta functions with: 
                l(1) =   0
                l(2) =   0
                l(3) =   1
                l(4) =   1
     Q(r) pseudized with  8 coefficients,  rinner =    0.800   0.800   0.800


     atomic species   valence    mass     pseudopotential
     H                 1.00     1.00800     H ( 1.00)
     O                 6.00    16.00000     O ( 1.00)

      2 Sym. Ops. (no inversion) found



   Cartesian axes

     site n.     atom                  positions (alat units)
         1        O      tau(   1) = (   0.0000000   1.1515127   0.1027092  )
         2        O      tau(   2) = (   0.0000000   0.5806063   0.9165697  )
         3        O      tau(   3) = (   0.5000000   0.2854532   0.1027092  )
         4        O      tau(   4) = (   0.5000000   1.4466659   0.9165697  )
         5        O      tau(   5) = (   0.5000000   1.4298643   1.5250118  )
         6        O      tau(   6) = (   0.5000000   0.3022548   0.7111513  )
         7        O      tau(   7) = (   0.0000000   0.5638048   1.5250118  )
         8        O      tau(   8) = (   0.0000000   1.1683143   0.7111513  )
         9        H      tau(   9) = (   0.0000000   1.1494343   0.3195216  )
        10        H      tau(  10) = (   0.0000000   0.5826848   1.1333822  )
        11        H      tau(  11) = (   0.5000000   0.2833747   0.3195216  )
        12        H      tau(  12) = (   0.5000000   1.4487443   1.1333822  )
        13        H      tau(  13) = (   0.0000000   0.9289355   0.0297873  )
        14        H      tau(  14) = (   0.0000000   0.8031836   0.8436478  )
        15        H      tau(  15) = (   0.5000000   0.0628759   0.0297873  )
        16        H      tau(  16) = (   0.5000000   1.6692431   0.8436478  )
        17        H      tau(  17) = (   0.6766000   1.3420459   1.5979337  )
        18        H      tau(  18) = (   0.3234000   0.3900732   0.7840732  )
        19        H      tau(  19) = (   0.6766000   0.3900732   0.7840732  )
        20        H      tau(  20) = (   0.3234000   1.3420459   1.5979337  )
        21        H      tau(  21) = (   0.1766000   0.4759863   1.5979337  )
        22        H      tau(  22) = (   0.8234000   1.2561327   0.7840732  )
        23        H      tau(  23) = (   0.1766000   1.2561327   0.7840732  )
        24        H      tau(  24) = (   0.8234000   0.4759863   1.5979337  )

     number of k points=   460

     Number of k-points >= 100: set verbosity='high' to print them.

     Dense  grid:   181567 G-vectors     FFT dimensions: (  50,  90,  81)

     Estimated max dynamical RAM per process >      47.66 MB

     Estimated total dynamical RAM >       5.83 GB

     Initial potential from superposition of free atoms

     starting charge      63.9998, renormalised to      64.0000
     Starting wfcs are   48 randomized atomic wfcs

     total cpu time spent up to now is        4.7 secs

     per-process dynamical memory:    55.1 Mb

     Self-consistent Calculation

     iteration #  1     ecut=    90.00 Ry     beta= 0.70
     Davidson diagonalization with overlap
     ethr =  1.00E-02,  avg # of iterations =  2.0

     total cpu time spent up to now is       13.5 secs

     total energy              =    -274.70200493 Ry
     estimated scf accuracy    <       2.96005789 Ry

     iteration #  2     ecut=    90.00 Ry     beta= 0.70
     Davidson diagonalization with overlap
     ethr =  4.63E-03,  avg # of iterations =  3.0

     total cpu time spent up to now is       24.9 secs

     total energy              =    -275.64924500 Ry
     estimated scf accuracy    <       1.46325614 Ry

     iteration #  3     ecut=    90.00 Ry     beta= 0.70
     Davidson diagonalization with overlap
     ethr =  2.29E-03,  avg # of iterations =  2.0

     total cpu time spent up to now is       33.4 secs

     total energy              =    -275.83659262 Ry
     estimated scf accuracy    <       0.05545311 Ry

     iteration #  4     ecut=    90.00 Ry     beta= 0.70
     Davidson diagonalization with overlap
     ethr =  8.66E-05,  avg # of iterations =  4.4

     total cpu time spent up to now is       46.6 secs

     total energy              =    -275.87814062 Ry
     estimated scf accuracy    <       0.07007313 Ry

     iteration #  5     ecut=    90.00 Ry     beta= 0.70
     Davidson diagonalization with overlap
     ethr =  8.66E-05,  avg # of iterations =  2.0

     total cpu time spent up to now is       54.7 secs

     total energy              =    -275.88130411 Ry
     estimated scf accuracy    <       0.01058655 Ry

     iteration #  6     ecut=    90.00 Ry     beta= 0.70
     Davidson diagonalization with overlap
     ethr =  1.65E-05,  avg # of iterations =  2.0

     total cpu time spent up to now is       63.0 secs

     total energy              =    -275.88153840 Ry
     estimated scf accuracy    <       0.00247822 Ry

     iteration #  7     ecut=    90.00 Ry     beta= 0.70
     Davidson diagonalization with overlap
     ethr =  3.87E-06,  avg # of iterations =  2.4

     total cpu time spent up to now is       73.3 secs

     total energy              =    -275.88245879 Ry
     estimated scf accuracy    <       0.00006703 Ry

     iteration #  8     ecut=    90.00 Ry     beta= 0.70
     Davidson diagonalization with overlap
     ethr =  1.05E-07,  avg # of iterations =  3.4

     total cpu time spent up to now is       84.6 secs

     total energy              =    -275.88246738 Ry
     estimated scf accuracy    <       0.00015664 Ry

     iteration #  9     ecut=    90.00 Ry     beta= 0.70
     Davidson diagonalization with overlap
     ethr =  1.05E-07,  avg # of iterations =  1.0

     total cpu time spent up to now is       91.2 secs

     total energy              =    -275.88243608 Ry
     estimated scf accuracy    <       0.00009610 Ry

     iteration # 10     ecut=    90.00 Ry     beta= 0.70
     Davidson diagonalization with overlap
     ethr =  1.05E-07,  avg # of iterations =  2.0

     total cpu time spent up to now is       99.6 secs

     total energy              =    -275.88243584 Ry
     estimated scf accuracy    <       0.00001650 Ry

     iteration # 11     ecut=    90.00 Ry     beta= 0.70
     Davidson diagonalization with overlap
     ethr =  2.58E-08,  avg # of iterations =  3.0

     total cpu time spent up to now is      109.8 secs

     total energy              =    -275.88244203 Ry
     estimated scf accuracy    <       0.00000050 Ry

     iteration # 12     ecut=    90.00 Ry     beta= 0.70
     Davidson diagonalization with overlap
     ethr =  7.81E-10,  avg # of iterations =  3.0

     total cpu time spent up to now is      120.2 secs

     total energy              =    -275.88244206 Ry
     estimated scf accuracy    <       0.00000064 Ry

     iteration # 13     ecut=    90.00 Ry     beta= 0.70
     Davidson diagonalization with overlap
     ethr =  7.81E-10,  avg # of iterations =  1.0

     total cpu time spent up to now is      126.7 secs

     total energy              =    -275.88244197 Ry
     estimated scf accuracy    <       0.00000025 Ry

     iteration # 14     ecut=    90.00 Ry     beta= 0.70
     Davidson diagonalization with overlap
     ethr =  3.88E-10,  avg # of iterations =  2.0

     total cpu time spent up to now is      135.9 secs

     End of self-consistent calculation

     Number of k-points >= 100: set verbosity='high' to print the bands.

     highest occupied level (ev):    -3.0324

!    total energy              =    -275.88244202 Ry
     estimated scf accuracy    <          1.3E-09 Ry

     The total energy is the sum of the following terms:
     one-electron contribution =    -233.48996822 Ry
     hartree contribution      =     138.00737776 Ry
     xc contribution           =     -68.54085556 Ry
     ewald contribution        =    -111.85899601 Ry

     convergence has been achieved in  14 iterations

     Forces acting on atoms (cartesian axes, Ry/au):

     atom    1 type  2   force =     0.00000000   -0.02414451   -0.11260789
     atom    2 type  2   force =     0.00000000    0.02415662   -0.11246693
     atom    3 type  2   force =     0.00000000   -0.02414441   -0.11260792
     atom    4 type  2   force =     0.00000000    0.02415650   -0.11246701
     atom    5 type  2   force =     0.00000000    0.17302056   -0.12536732
     atom    6 type  2   force =     0.00000000   -0.17302315   -0.12556263
     atom    7 type  2   force =     0.00000000    0.17302068   -0.12536740
     atom    8 type  2   force =     0.00000000   -0.17302324   -0.12556271
     atom    9 type  1   force =     0.00000000   -0.00153564    0.09974215
     atom   10 type  1   force =     0.00000000    0.00154347    0.09974434
     atom   11 type  1   force =     0.00000000   -0.00153562    0.09974223
     atom   12 type  1   force =     0.00000000    0.00154345    0.09974440
     atom   13 type  1   force =     0.00000000    0.02286713    0.00690202
     atom   14 type  1   force =     0.00000000   -0.02287848    0.00688726
     atom   15 type  1   force =     0.00000000    0.02286708    0.00690199
     atom   16 type  1   force =     0.00000000   -0.02287843    0.00688722
     atom   17 type  1   force =     0.13637439   -0.08541556    0.06568772
     atom   18 type  1   force =    -0.13637964    0.08541255    0.06567684
     atom   19 type  1   force =     0.13637964    0.08541255    0.06567684
     atom   20 type  1   force =    -0.13637439   -0.08541556    0.06568772
     atom   21 type  1   force =     0.13637434   -0.08541554    0.06568771
     atom   22 type  1   force =    -0.13637959    0.08541253    0.06567682
     atom   23 type  1   force =     0.13637959    0.08541253    0.06567682
     atom   24 type  1   force =    -0.13637434   -0.08541554    0.06568771

     Total force =     0.720735     Total SCF correction =     0.000030


     Computing stress (Cartesian axis) and pressure

          total   stress  (Ry/bohr**3)                   (kbar)     P=      105.58
   0.00114056   0.00000000   0.00000000          167.78        0.00        0.00
   0.00000000   0.00022902  -0.00000004            0.00       33.69       -0.01
   0.00000000  -0.00000004   0.00078354            0.00       -0.01      115.26


     Writing all to output data dir ./iceIh/iceIh.save/ :
     XML data file, charge density, pseudopotentials, collected wavefunctions

     init_run     :      4.31s CPU      4.39s WALL (       1 calls)
     electrons    :    129.21s CPU    131.22s WALL (       1 calls)
     forces       :      0.53s CPU      0.55s WALL (       1 calls)
     stress       :      8.06s CPU      8.07s WALL (       1 calls)

     Called by init_run:
     wfcinit      :      3.94s CPU      3.99s WALL (       1 calls)
     potinit      :      0.03s CPU      0.04s WALL (       1 calls)
     hinit0       :      0.25s CPU      0.26s WALL (       1 calls)

     Called by electrons:
     c_bands      :    114.12s CPU    115.91s WALL (      14 calls)
     sum_band     :     14.87s CPU     15.03s WALL (      14 calls)
     v_of_rho     :      0.15s CPU      0.17s WALL (      15 calls)
     newd         :      0.03s CPU      0.03s WALL (      15 calls)
     mix_rho      :      0.04s CPU      0.04s WALL (      14 calls)

     Called by c_bands:
     init_us_2    :      1.78s CPU      1.84s WALL (    3565 calls)
     cegterg      :    110.02s CPU    111.06s WALL (    1610 calls)

     Called by *egterg:
     cdiaghg      :      9.37s CPU      9.42s WALL (    5596 calls)
     h_psi        :     86.72s CPU     87.68s WALL (    5711 calls)
     s_psi        :      3.31s CPU      3.34s WALL (    5711 calls)
     g_psi        :      0.29s CPU      0.29s WALL (    3986 calls)

     Called by h_psi:
     h_psi:calbec :      5.33s CPU      5.39s WALL (    5711 calls)
     vloc_psi     :     77.28s CPU     78.13s WALL (    5711 calls)
     add_vuspsi   :      3.53s CPU      3.56s WALL (    5711 calls)

     General routines
     calbec       :      7.17s CPU      7.25s WALL (    7896 calls)
     fft          :      0.32s CPU      0.33s WALL (     173 calls)
     ffts         :      0.01s CPU      0.01s WALL (      14 calls)
     fftw         :     81.80s CPU     82.68s WALL (  359646 calls)

     Parallel routines

     PWSCF        :   2m25.50s CPU   2m30.97s WALL


   This run was terminated on:   0:34:11  21Mar2026            

=------------------------------------------------------------------------------=
   JOB DONE.
=------------------------------------------------------------------------------=
