
     Program PWSCF v.7.3.1 starts on 24Mar2026 at 20: 1: 2 

     This program is part of the open-source Quantum ESPRESSO suite
     for quantum simulation of materials; please cite
         "P. Giannozzi et al., J. Phys.:Condens. Matter 21 395502 (2009);
         "P. Giannozzi et al., J. Phys.:Condens. Matter 29 465901 (2017);
         "P. Giannozzi et al., J. Chem. Phys. 152 154105 (2020);
          URL http://www.quantum-espresso.org", 
     in publications or presentations arising from this work. More details at
     http://www.quantum-espresso.org/quote

     Parallel version (MPI), running on   128 processors

     MPI processes distributed on     1 nodes
     237779 MiB available memory on the printing compute node when the environment starts

     Waiting for input...
     Reading input from standard input

     Current dimensions of program PWSCF are:
     Max number of different atomic species (ntypx) = 10
     Max number of k-points (npk) =  40000
     Max angular momentum in pseudopotentials (lmaxx) =  4
     Found identity + ( -0.5000  0.5000 -0.0000) symmetry
     This is a supercell, fractional translations are disabled

     K-points division:     npool     =       4
     R & G space division:  proc/nbgrp/npool/nimage =      32
     Subspace diagonalization in iterative solution of the eigenvalue problem:
     a serial algorithm will be used


     Parallelization info
     --------------------
     sticks:   dense  smooth     PW     G-vecs:    dense   smooth      PW
     Min         107     107     29                 5847     5847     845
     Max         108     108     30                 5852     5852     850
     Sum        3441    3441    951               187149   187149   27133

     Using Slab Decomposition



     bravais-lattice index     =            8
     lattice parameter (alat)  =       8.3204  a.u.
     unit-cell volume          =    1624.0046 (a.u.)^3
     number of atoms/cell      =           24
     number of atomic types    =            2
     number of electrons       =        64.00
     number of Kohn-Sham states=           32
     kinetic-energy cutoff     =      90.0000  Ry
     charge density cutoff     =     360.0000  Ry
     scf convergence threshold =      1.0E-07
     mixing beta               =       0.7000
     number of iterations used =            8  plain     mixing
     Exchange-correlation=  SLA  PW   PBE  PBE
                           (   1   4   3   4   0   0   0)

     celldm(1)=   8.320380  celldm(2)=   1.732119  celldm(3)=   1.627721
     celldm(4)=   0.000000  celldm(5)=   0.000000  celldm(6)=   0.000000

     crystal axes: (cart. coord. in units of alat)
               a(1) = (   1.000000   0.000000   0.000000 )  
               a(2) = (   0.000000   1.732119   0.000000 )  
               a(3) = (   0.000000   0.000000   1.627721 )  

     reciprocal axes: (cart. coord. in units 2 pi/alat)
               b(1) = (  1.000000  0.000000  0.000000 )  
               b(2) = (  0.000000  0.577328  0.000000 )  
               b(3) = (  0.000000  0.000000  0.614356 )  


     PseudoPot. # 1 for H  read from file:
     ./H.pbe-van_ak.UPF
     MD5 check sum: 077eb6d537518a38cb46c6de387227b7
     Pseudo is Ultrasoft, Zval =  1.0
     Generated by new atomic code, or converted to UPF format
     Using radial grid of  615 points,  1 beta functions with: 
                l(1) =   0
     Q(r) pseudized with  8 coefficients,  rinner =    0.800

     PseudoPot. # 2 for O  read from file:
     ./O.pbe-van_ak.UPF
     MD5 check sum: 78c19812648e8988a0fe644b0f25305e
     Pseudo is Ultrasoft, Zval =  6.0
     Generated by new atomic code, or converted to UPF format
     Using radial grid of  737 points,  4 beta functions with: 
                l(1) =   0
                l(2) =   0
                l(3) =   1
                l(4) =   1
     Q(r) pseudized with  8 coefficients,  rinner =    0.800   0.800   0.800


     atomic species   valence    mass     pseudopotential
     H                 1.00     1.00800     H ( 1.00)
     O                 6.00    16.00000     O ( 1.00)

      2 Sym. Ops. (no inversion) found



   Cartesian axes

     site n.     atom                  positions (alat units)
         1        O      tau(   1) = (   0.0000000   1.1484866   0.0984416  )
         2        O      tau(   2) = (   0.0000000   0.5836324   0.9123021  )
         3        O      tau(   3) = (   0.5000000   0.2824271   0.0984415  )
         4        O      tau(   4) = (   0.5000000   1.4496920   0.9123021  )
         5        O      tau(   5) = (   0.5000000   1.4402433   1.5187349  )
         6        O      tau(   6) = (   0.5000000   0.2918758   0.7048744  )
         7        O      tau(   7) = (   0.0000000   0.5741838   1.5187348  )
         8        O      tau(   8) = (   0.0000000   1.1579353   0.7048743  )
         9        H      tau(   9) = (   0.0000000   1.1487418   0.3216685  )
        10        H      tau(  10) = (   0.0000000   0.5833772   1.1355290  )
        11        H      tau(  11) = (   0.5000000   0.2826823   0.3216685  )
        12        H      tau(  12) = (   0.5000000   1.4494367   1.1355290  )
        13        H      tau(  13) = (   0.0000000   0.9333594   0.0315143  )
        14        H      tau(  14) = (   0.0000000   0.7987597   0.8453748  )
        15        H      tau(  15) = (   0.5000000   0.0672998   0.0315143  )
        16        H      tau(  16) = (   0.5000000   1.6648192   0.8453748  )
        17        H      tau(  17) = (   0.6820699   1.3365463   1.6012691  )
        18        H      tau(  18) = (   0.3179301   0.3955728   0.7874086  )
        19        H      tau(  19) = (   0.6820699   0.3955728   0.7874086  )
        20        H      tau(  20) = (   0.3179301   1.3365463   1.6012691  )
        21        H      tau(  21) = (   0.1820699   0.4704867   1.6012691  )
        22        H      tau(  22) = (   0.8179301   1.2616323   0.7874086  )
        23        H      tau(  23) = (   0.1820699   1.2616323   0.7874086  )
        24        H      tau(  24) = (   0.8179301   0.4704867   1.6012691  )

     number of k points=   460

     Number of k-points >= 100: set verbosity='high' to print them.

     Dense  grid:   187149 G-vectors     FFT dimensions: (  54,  90,  81)

     Estimated max dynamical RAM per process >      49.15 MB

     Estimated total dynamical RAM >       6.01 GB

     Initial potential from superposition of free atoms

     starting charge      63.9998, renormalised to      64.0000
     Starting wfcs are   48 randomized atomic wfcs

     total cpu time spent up to now is        4.8 secs

     per-process dynamical memory:    56.9 Mb

     Self-consistent Calculation

     iteration #  1     ecut=    90.00 Ry     beta= 0.70
     Davidson diagonalization with overlap
     ethr =  1.00E-02,  avg # of iterations =  2.0

     total cpu time spent up to now is       13.8 secs

     total energy              =    -274.92570936 Ry
     estimated scf accuracy    <       2.66338428 Ry

     iteration #  2     ecut=    90.00 Ry     beta= 0.70
     Davidson diagonalization with overlap
     ethr =  4.16E-03,  avg # of iterations =  3.0

     total cpu time spent up to now is       25.6 secs

     total energy              =    -275.77882199 Ry
     estimated scf accuracy    <       1.46561597 Ry

     iteration #  3     ecut=    90.00 Ry     beta= 0.70
     Davidson diagonalization with overlap
     ethr =  2.29E-03,  avg # of iterations =  2.0

     negative rho (up, down):  5.468E-08 0.000E+00

     total cpu time spent up to now is       34.7 secs

     total energy              =    -275.96640756 Ry
     estimated scf accuracy    <       0.05852751 Ry

     iteration #  4     ecut=    90.00 Ry     beta= 0.70
     Davidson diagonalization with overlap
     ethr =  9.14E-05,  avg # of iterations =  4.0

     negative rho (up, down):  1.808E-07 0.000E+00

     total cpu time spent up to now is       48.1 secs

     total energy              =    -276.01049434 Ry
     estimated scf accuracy    <       0.07102017 Ry

     iteration #  5     ecut=    90.00 Ry     beta= 0.70
     Davidson diagonalization with overlap
     ethr =  9.14E-05,  avg # of iterations =  2.0

     negative rho (up, down):  2.130E-07 0.000E+00

     total cpu time spent up to now is       56.5 secs

     total energy              =    -276.01393696 Ry
     estimated scf accuracy    <       0.01066501 Ry

     iteration #  6     ecut=    90.00 Ry     beta= 0.70
     Davidson diagonalization with overlap
     ethr =  1.67E-05,  avg # of iterations =  2.0

     negative rho (up, down):  2.663E-07 0.000E+00

     total cpu time spent up to now is       65.0 secs

     total energy              =    -276.01339088 Ry
     estimated scf accuracy    <       0.00344451 Ry

     iteration #  7     ecut=    90.00 Ry     beta= 0.70
     Davidson diagonalization with overlap
     ethr =  5.38E-06,  avg # of iterations =  3.0

     negative rho (up, down):  2.674E-07 0.000E+00

     total cpu time spent up to now is       75.9 secs

     total energy              =    -276.01472412 Ry
     estimated scf accuracy    <       0.00008691 Ry

     iteration #  8     ecut=    90.00 Ry     beta= 0.70
     Davidson diagonalization with overlap
     ethr =  1.36E-07,  avg # of iterations =  4.2

     negative rho (up, down):  2.571E-07 0.000E+00

     total cpu time spent up to now is       89.4 secs

     total energy              =    -276.01466026 Ry
     estimated scf accuracy    <       0.00062474 Ry

     iteration #  9     ecut=    90.00 Ry     beta= 0.70
     Davidson diagonalization with overlap
     ethr =  1.36E-07,  avg # of iterations =  2.3

     negative rho (up, down):  2.426E-07 0.000E+00

     total cpu time spent up to now is       99.5 secs

     total energy              =    -276.01459595 Ry
     estimated scf accuracy    <       0.00023937 Ry

     iteration # 10     ecut=    90.00 Ry     beta= 0.70
     Davidson diagonalization with overlap
     ethr =  1.36E-07,  avg # of iterations =  3.0

     negative rho (up, down):  2.417E-07 0.000E+00

     total cpu time spent up to now is      110.3 secs

     total energy              =    -276.01461735 Ry
     estimated scf accuracy    <       0.00002873 Ry

     iteration # 11     ecut=    90.00 Ry     beta= 0.70
     Davidson diagonalization with overlap
     ethr =  4.49E-08,  avg # of iterations =  2.8

     negative rho (up, down):  2.400E-07 0.000E+00

     total cpu time spent up to now is      119.7 secs

     total energy              =    -276.01462147 Ry
     estimated scf accuracy    <       0.00000415 Ry

     iteration # 12     ecut=    90.00 Ry     beta= 0.70
     Davidson diagonalization with overlap
     ethr =  6.49E-09,  avg # of iterations =  3.4

     negative rho (up, down):  2.400E-07 0.000E+00

     total cpu time spent up to now is      130.3 secs

     End of self-consistent calculation

     Number of k-points >= 100: set verbosity='high' to print the bands.

     highest occupied level (ev):    -3.1882

!    total energy              =    -276.01462287 Ry
     estimated scf accuracy    <       0.00000008 Ry

     The total energy is the sum of the following terms:
     one-electron contribution =    -231.80604891 Ry
     hartree contribution      =     137.06343268 Ry
     xc contribution           =     -67.96838656 Ry
     ewald contribution        =    -113.30362008 Ry

     convergence has been achieved in  12 iterations

     Forces acting on atoms (cartesian axes, Ry/au):

     atom    1 type  2   force =     0.00000000    0.02335766   -0.02795036
     atom    2 type  2   force =     0.00000000   -0.02339984   -0.02790928
     atom    3 type  2   force =     0.00000000    0.02335716   -0.02795016
     atom    4 type  2   force =     0.00000000   -0.02340011   -0.02790928
     atom    5 type  2   force =     0.00000000    0.02407283   -0.00950634
     atom    6 type  2   force =     0.00000000   -0.02406377   -0.00955615
     atom    7 type  2   force =     0.00000000    0.02407314   -0.00950646
     atom    8 type  2   force =     0.00000000   -0.02406450   -0.00955666
     atom    9 type  1   force =     0.00000000    0.00021690    0.03445684
     atom   10 type  1   force =     0.00000000   -0.00020286    0.03446246
     atom   11 type  1   force =     0.00000000    0.00021691    0.03445718
     atom   12 type  1   force =     0.00000000   -0.00020288    0.03446253
     atom   13 type  1   force =     0.00000000   -0.01814988   -0.00871252
     atom   14 type  1   force =     0.00000000    0.01815824   -0.00871381
     atom   15 type  1   force =     0.00000000   -0.01815005   -0.00871255
     atom   16 type  1   force =     0.00000000    0.01815837   -0.00871384
     atom   17 type  1   force =     0.01390518   -0.01480323    0.00586014
     atom   18 type  1   force =    -0.01390054    0.01480894    0.00585448
     atom   19 type  1   force =     0.01390054    0.01480894    0.00585448
     atom   20 type  1   force =    -0.01390518   -0.01480323    0.00586014
     atom   21 type  1   force =     0.01390531   -0.01480325    0.00586015
     atom   22 type  1   force =    -0.01390053    0.01480887    0.00585443
     atom   23 type  1   force =     0.01390053    0.01480887    0.00585443
     atom   24 type  1   force =    -0.01390531   -0.01480325    0.00586015

     Total force =     0.133917     Total SCF correction =     0.000306


     Computing stress (Cartesian axis) and pressure

          total   stress  (Ry/bohr**3)                   (kbar)     P=       23.22
   0.00009508   0.00000000   0.00000000           13.99        0.00        0.00
   0.00000000   0.00014542   0.00000002            0.00       21.39        0.00
   0.00000000   0.00000002   0.00023307            0.00        0.00       34.29


     Writing all to output data dir ./iceIh/iceIh.save/ :
     XML data file, charge density, pseudopotentials, collected wavefunctions

     init_run     :      4.48s CPU      4.59s WALL (       1 calls)
     electrons    :    123.88s CPU    125.54s WALL (       1 calls)
     forces       :      0.54s CPU      0.56s WALL (       1 calls)
     stress       :      8.25s CPU      8.28s WALL (       1 calls)

     Called by init_run:
     wfcinit      :      4.13s CPU      4.20s WALL (       1 calls)
     potinit      :      0.02s CPU      0.04s WALL (       1 calls)
     hinit0       :      0.24s CPU      0.25s WALL (       1 calls)

     Called by electrons:
     c_bands      :    110.29s CPU    111.73s WALL (      12 calls)
     sum_band     :     13.37s CPU     13.54s WALL (      12 calls)
     v_of_rho     :      0.14s CPU      0.15s WALL (      13 calls)
     newd         :      0.03s CPU      0.03s WALL (      13 calls)
     mix_rho      :      0.03s CPU      0.03s WALL (      12 calls)

     Called by c_bands:
     init_us_2    :      1.60s CPU      1.64s WALL (    3105 calls)
     cegterg      :    106.31s CPU    107.12s WALL (    1380 calls)

     Called by *egterg:
     cdiaghg      :      9.23s CPU      9.26s WALL (    5338 calls)
     h_psi        :     83.52s CPU     84.30s WALL (    5453 calls)
     s_psi        :      3.19s CPU      3.21s WALL (    5453 calls)
     g_psi        :      0.28s CPU      0.28s WALL (    3958 calls)

     Called by h_psi:
     h_psi:calbec :      5.20s CPU      5.25s WALL (    5453 calls)
     vloc_psi     :     74.31s CPU     75.00s WALL (    5453 calls)
     add_vuspsi   :      3.39s CPU      3.42s WALL (    5453 calls)

     General routines
     calbec       :      6.84s CPU      6.91s WALL (    7408 calls)
     fft          :      0.30s CPU      0.31s WALL (     151 calls)
     ffts         :      0.01s CPU      0.01s WALL (      12 calls)
     fftw         :     77.68s CPU     78.41s WALL (  328178 calls)

     Parallel routines

     PWSCF        :   2m19.46s CPU   2m24.20s WALL


   This run was terminated on:  20: 3:26  24Mar2026            

=------------------------------------------------------------------------------=
   JOB DONE.
=------------------------------------------------------------------------------=
