
     Program PWSCF v.7.3.1 starts on  1Apr2026 at  5:41:47 

     This program is part of the open-source Quantum ESPRESSO suite
     for quantum simulation of materials; please cite
         "P. Giannozzi et al., J. Phys.:Condens. Matter 21 395502 (2009);
         "P. Giannozzi et al., J. Phys.:Condens. Matter 29 465901 (2017);
         "P. Giannozzi et al., J. Chem. Phys. 152 154105 (2020);
          URL http://www.quantum-espresso.org", 
     in publications or presentations arising from this work. More details at
     http://www.quantum-espresso.org/quote

     Parallel version (MPI), running on   128 processors

     MPI processes distributed on     1 nodes
     494891 MiB available memory on the printing compute node when the environment starts

     Waiting for input...
     Reading input from standard input

     Current dimensions of program PWSCF are:
     Max number of different atomic species (ntypx) = 10
     Max number of k-points (npk) =  40000
     Max angular momentum in pseudopotentials (lmaxx) =  4
     Found identity + ( -0.5000 -0.5000  0.0000) symmetry
     This is a supercell, fractional translations are disabled

     K-points division:     npool     =       4
     R & G space division:  proc/nbgrp/npool/nimage =      32
     Subspace diagonalization in iterative solution of the eigenvalue problem:
     a serial algorithm will be used


     Parallelization info
     --------------------
     sticks:   dense  smooth     PW     G-vecs:    dense   smooth      PW
     Min         108     108     29                 5924     5924     857
     Max         109     109     30                 5929     5929     864
     Sum        3465    3465    955               189607   189607   27569

     Using Slab Decomposition



     bravais-lattice index     =            8
     lattice parameter (alat)  =       8.3544  a.u.
     unit-cell volume          =    1644.0126 (a.u.)^3
     number of atoms/cell      =           24
     number of atomic types    =            2
     number of electrons       =        64.00
     number of Kohn-Sham states=           32
     kinetic-energy cutoff     =      90.0000  Ry
     charge density cutoff     =     360.0000  Ry
     scf convergence threshold =      1.0E-07
     mixing beta               =       0.7000
     number of iterations used =            8  plain     mixing
     energy convergence thresh.=      1.0E-04
     force convergence thresh. =      1.0E-04
     Exchange-correlation=  SLA  PW   PBE  PBE
                           (   1   4   3   4   0   0   0)
     nstep                     =           50


     celldm(1)=   8.354411  celldm(2)=   1.732119  celldm(3)=   1.627721
     celldm(4)=   0.000000  celldm(5)=   0.000000  celldm(6)=   0.000000

     crystal axes: (cart. coord. in units of alat)
               a(1) = (   1.000000   0.000000   0.000000 )  
               a(2) = (   0.000000   1.732119   0.000000 )  
               a(3) = (   0.000000   0.000000   1.627721 )  

     reciprocal axes: (cart. coord. in units 2 pi/alat)
               b(1) = (  1.000000  0.000000  0.000000 )  
               b(2) = (  0.000000  0.577328  0.000000 )  
               b(3) = (  0.000000  0.000000  0.614356 )  


     PseudoPot. # 1 for H  read from file:
     ./H.pbe-van_ak.UPF
     MD5 check sum: 077eb6d537518a38cb46c6de387227b7
     Pseudo is Ultrasoft, Zval =  1.0
     Generated by new atomic code, or converted to UPF format
     Using radial grid of  615 points,  1 beta functions with: 
                l(1) =   0
     Q(r) pseudized with  8 coefficients,  rinner =    0.800

     PseudoPot. # 2 for O  read from file:
     ./O.pbe-van_ak.UPF
     MD5 check sum: 78c19812648e8988a0fe644b0f25305e
     Pseudo is Ultrasoft, Zval =  6.0
     Generated by new atomic code, or converted to UPF format
     Using radial grid of  737 points,  4 beta functions with: 
                l(1) =   0
                l(2) =   0
                l(3) =   1
                l(4) =   1
     Q(r) pseudized with  8 coefficients,  rinner =    0.800   0.800   0.800


     atomic species   valence    mass     pseudopotential
     H                 1.00     1.00800     H ( 1.00)
     O                 6.00    16.00000     O ( 1.00)

      2 Sym. Ops. (no inversion) found



   Cartesian axes

     site n.     atom                  positions (alat units)
         1        O      tau(   1) = (   0.0000000   1.1515127   0.1027092  )
         2        O      tau(   2) = (   0.0000000   0.5806063   0.9165697  )
         3        O      tau(   3) = (   0.5000000   0.2854532   0.1027092  )
         4        O      tau(   4) = (   0.5000000   1.4466659   0.9165697  )
         5        O      tau(   5) = (   0.5000000   1.4298643   1.5250118  )
         6        O      tau(   6) = (   0.5000000   0.3022548   0.7111513  )
         7        O      tau(   7) = (   0.0000000   0.5638048   1.5250118  )
         8        O      tau(   8) = (   0.0000000   1.1683143   0.7111513  )
         9        H      tau(   9) = (   0.0000000   1.1494343   0.3195216  )
        10        H      tau(  10) = (   0.0000000   0.5826848   1.1333822  )
        11        H      tau(  11) = (   0.5000000   0.2833747   0.3195216  )
        12        H      tau(  12) = (   0.5000000   1.4487443   1.1333822  )
        13        H      tau(  13) = (   0.0000000   0.9289355   0.0297873  )
        14        H      tau(  14) = (   0.0000000   0.8031836   0.8436478  )
        15        H      tau(  15) = (   0.5000000   0.0628759   0.0297873  )
        16        H      tau(  16) = (   0.5000000   1.6692431   0.8436478  )
        17        H      tau(  17) = (   0.6766000   1.3420459   1.5979337  )
        18        H      tau(  18) = (   0.3234000   0.3900732   0.7840732  )
        19        H      tau(  19) = (   0.6766000   0.3900732   0.7840732  )
        20        H      tau(  20) = (   0.3234000   1.3420459   1.5979337  )
        21        H      tau(  21) = (   0.1766000   0.4759863   1.5979337  )
        22        H      tau(  22) = (   0.8234000   1.2561327   0.7840732  )
        23        H      tau(  23) = (   0.1766000   1.2561327   0.7840732  )
        24        H      tau(  24) = (   0.8234000   0.4759863   1.5979337  )

     number of k points=   460

     Number of k-points >= 100: set verbosity='high' to print them.

     Dense  grid:   189607 G-vectors     FFT dimensions: (  54,  90,  90)

     Estimated max dynamical RAM per process >      49.73 MB

     Estimated total dynamical RAM >       6.08 GB

     Initial potential from superposition of free atoms

     starting charge      63.9998, renormalised to      64.0000
     Starting wfcs are   48 randomized atomic wfcs

     total cpu time spent up to now is        4.9 secs

     per-process dynamical memory:    56.8 Mb

     Self-consistent Calculation

     iteration #  1     ecut=    90.00 Ry     beta= 0.70
     Davidson diagonalization with overlap
     ethr =  1.00E-02,  avg # of iterations =  2.0

     total cpu time spent up to now is       14.1 secs

     total energy              =    -274.75529241 Ry
     estimated scf accuracy    <       2.88828894 Ry

     iteration #  2     ecut=    90.00 Ry     beta= 0.70
     Davidson diagonalization with overlap
     ethr =  4.51E-03,  avg # of iterations =  3.0

     total cpu time spent up to now is       25.9 secs

     total energy              =    -275.67423708 Ry
     estimated scf accuracy    <       1.54118340 Ry

     iteration #  3     ecut=    90.00 Ry     beta= 0.70
     Davidson diagonalization with overlap
     ethr =  2.41E-03,  avg # of iterations =  2.0

     total cpu time spent up to now is       34.9 secs

     total energy              =    -275.87511784 Ry
     estimated scf accuracy    <       0.05861783 Ry

     iteration #  4     ecut=    90.00 Ry     beta= 0.70
     Davidson diagonalization with overlap
     ethr =  9.16E-05,  avg # of iterations =  4.3

     total cpu time spent up to now is       48.6 secs

     total energy              =    -275.92041327 Ry
     estimated scf accuracy    <       0.07443224 Ry

     iteration #  5     ecut=    90.00 Ry     beta= 0.70
     Davidson diagonalization with overlap
     ethr =  9.16E-05,  avg # of iterations =  2.0

     total cpu time spent up to now is       56.9 secs

     total energy              =    -275.92326143 Ry
     estimated scf accuracy    <       0.01194464 Ry

     iteration #  6     ecut=    90.00 Ry     beta= 0.70
     Davidson diagonalization with overlap
     ethr =  1.87E-05,  avg # of iterations =  2.0

     negative rho (up, down):  2.684E-08 0.000E+00

     total cpu time spent up to now is       65.5 secs

     total energy              =    -275.92326147 Ry
     estimated scf accuracy    <       0.00298033 Ry

     iteration #  7     ecut=    90.00 Ry     beta= 0.70
     Davidson diagonalization with overlap
     ethr =  4.66E-06,  avg # of iterations =  2.3

     total cpu time spent up to now is       76.1 secs

     total energy              =    -275.92435329 Ry
     estimated scf accuracy    <       0.00009283 Ry

     iteration #  8     ecut=    90.00 Ry     beta= 0.70
     Davidson diagonalization with overlap
     ethr =  1.45E-07,  avg # of iterations =  4.0

     negative rho (up, down):  1.020E-08 0.000E+00

     total cpu time spent up to now is       88.6 secs

     total energy              =    -275.92435135 Ry
     estimated scf accuracy    <       0.00032446 Ry

     iteration #  9     ecut=    90.00 Ry     beta= 0.70
     Davidson diagonalization with overlap
     ethr =  1.45E-07,  avg # of iterations =  2.0

     total cpu time spent up to now is       96.3 secs

     total energy              =    -275.92429687 Ry
     estimated scf accuracy    <       0.00017061 Ry

     iteration # 10     ecut=    90.00 Ry     beta= 0.70
     Davidson diagonalization with overlap
     ethr =  1.45E-07,  avg # of iterations =  2.0

     total cpu time spent up to now is      105.7 secs

     total energy              =    -275.92430416 Ry
     estimated scf accuracy    <       0.00002359 Ry

     iteration # 11     ecut=    90.00 Ry     beta= 0.70
     Davidson diagonalization with overlap
     ethr =  3.69E-08,  avg # of iterations =  3.0

     total cpu time spent up to now is      116.2 secs

     total energy              =    -275.92431198 Ry
     estimated scf accuracy    <       0.00000022 Ry

     iteration # 12     ecut=    90.00 Ry     beta= 0.70
     Davidson diagonalization with overlap
     ethr =  3.41E-10,  avg # of iterations =  5.2

     total cpu time spent up to now is      132.4 secs

     total energy              =    -275.92431223 Ry
     estimated scf accuracy    <       0.00000161 Ry

     iteration # 13     ecut=    90.00 Ry     beta= 0.70
     Davidson diagonalization with overlap
     ethr =  3.41E-10,  avg # of iterations =  2.3

     total cpu time spent up to now is      142.5 secs

     total energy              =    -275.92431195 Ry
     estimated scf accuracy    <       0.00000055 Ry

     iteration # 14     ecut=    90.00 Ry     beta= 0.70
     Davidson diagonalization with overlap
     ethr =  3.41E-10,  avg # of iterations =  4.0

     total cpu time spent up to now is      155.9 secs

     total energy              =    -275.92431216 Ry
     estimated scf accuracy    <       0.00000013 Ry

     iteration # 15     ecut=    90.00 Ry     beta= 0.70
     Davidson diagonalization with overlap
     ethr =  2.05E-10,  avg # of iterations =  2.0

     total cpu time spent up to now is      164.1 secs

     End of self-consistent calculation

     Number of k-points >= 100: set verbosity='high' to print the bands.

     highest occupied level (ev):    -3.2119

!    total energy              =    -275.92431215 Ry
     estimated scf accuracy    <       0.00000002 Ry

     The total energy is the sum of the following terms:
     one-electron contribution =    -236.51386314 Ry
     hartree contribution      =     139.12660487 Ry
     xc contribution           =     -68.27278898 Ry
     ewald contribution        =    -110.26426490 Ry

     convergence has been achieved in  15 iterations

     Forces acting on atoms (cartesian axes, Ry/au):

     atom    1 type  2   force =     0.00000000   -0.03996526   -0.08970343
     atom    2 type  2   force =     0.00000000    0.03996524   -0.08970261
     atom    3 type  2   force =     0.00000000   -0.03996526   -0.08970339
     atom    4 type  2   force =     0.00000000    0.03996515   -0.08970262
     atom    5 type  2   force =     0.00000000    0.14475028   -0.10263152
     atom    6 type  2   force =     0.00000000   -0.14475010   -0.10263131
     atom    7 type  2   force =     0.00000000    0.14475021   -0.10263130
     atom    8 type  2   force =     0.00000000   -0.14475000   -0.10263119
     atom    9 type  1   force =     0.00000000   -0.00244739    0.07017274
     atom   10 type  1   force =     0.00000000    0.00244737    0.07017192
     atom   11 type  1   force =     0.00000000   -0.00244736    0.07017256
     atom   12 type  1   force =     0.00000000    0.00244736    0.07017182
     atom   13 type  1   force =     0.00000000    0.03974966    0.01390206
     atom   14 type  1   force =     0.00000000   -0.03974961    0.01390200
     atom   15 type  1   force =     0.00000000    0.03974990    0.01390211
     atom   16 type  1   force =     0.00000000   -0.03974975    0.01390203
     atom   17 type  1   force =     0.10581364   -0.07131166    0.05413003
     atom   18 type  1   force =    -0.10581353    0.07131158    0.05412996
     atom   19 type  1   force =     0.10581353    0.07131158    0.05412996
     atom   20 type  1   force =    -0.10581364   -0.07131166    0.05413003
     atom   21 type  1   force =     0.10581379   -0.07131175    0.05413010
     atom   22 type  1   force =    -0.10581351    0.07131158    0.05412997
     atom   23 type  1   force =     0.10581351    0.07131158    0.05412997
     atom   24 type  1   force =    -0.10581379   -0.07131175    0.05413010

     Total force =     0.587391     Total SCF correction =     0.000116


     Computing stress (Cartesian axis) and pressure

          total   stress  (Ry/bohr**3)                   (kbar)     P=       66.40
   0.00081797   0.00000000   0.00000000          120.33        0.00        0.00
   0.00000000   0.00002453   0.00000000            0.00        3.61        0.00
   0.00000000   0.00000000   0.00051157            0.00        0.00       75.25


     BFGS Geometry Optimization
     Energy error            =      0.0E+00 Ry
     Gradient error          =      1.4E-01 Ry/Bohr

     number of scf cycles    =   1
     number of bfgs steps    =   0

     energy             new  =    -275.9243121533 Ry

     new trust radius        =       0.1774425904 bohr
     new conv_thr            =       0.0000001000 Ry


ATOMIC_POSITIONS (crystal)
O                0.0000000000        0.6620382079        0.0565035078
O                0.0000000000        0.3379617910        0.5565035449
O                0.5000000000        0.1620382076        0.0565035106
O                0.5000000000        0.8379617846        0.5565035441
O                0.5000000000        0.8355029097        0.9293528356
O                0.5000000000        0.1644971031        0.4293528208
O                0.0000000000        0.3355029049        0.9293528514
O                0.0000000000        0.6644971102        0.4293528298
H                0.0000000000        0.6634309024        0.2014602725
H                0.0000000000        0.3365690965        0.7014602424
H                0.5000000000        0.1634309045        0.2014602596
H                0.5000000000        0.8365690959        0.7014602351
H                0.0000000000        0.5390468853        0.0193223131
H                0.0000000000        0.4609531184        0.5193223046
H                0.5000000000        0.0390469018        0.0193223165
H                0.5000000000        0.9609531087        0.5193223068
H                0.6892655816        0.7698720454        0.9856805473
H                0.3107344316        0.2301279497        0.4856805426
H                0.6892655684        0.2301279497        0.4856805426
H                0.3107344184        0.7698720454        0.9856805473
H                0.1892655995        0.2698720389        0.9856805523
H                0.8107344342        0.7301279497        0.4856805430
H                0.1892655658        0.7301279497        0.4856805430
H                0.8107344005        0.2698720389        0.9856805523



     Writing config-only to output data dir ./iceIh/iceIh.save/ :
     XML data file
     NEW-OLD atomic charge density approx. for the potential

     total cpu time spent up to now is      173.3 secs

     per-process dynamical memory:    60.4 Mb

     Self-consistent Calculation

     iteration #  1     ecut=    90.00 Ry     beta= 0.70
     Davidson diagonalization with overlap
     ethr =  1.00E-06,  avg # of iterations = 11.0

     total cpu time spent up to now is      202.3 secs

     total energy              =    -275.95738560 Ry
     estimated scf accuracy    <       0.09434131 Ry

     iteration #  2     ecut=    90.00 Ry     beta= 0.70
     Davidson diagonalization with overlap
     ethr =  1.47E-04,  avg # of iterations =  3.0

     total cpu time spent up to now is      213.6 secs

     total energy              =    -275.97826910 Ry
     estimated scf accuracy    <       0.04107739 Ry

     iteration #  3     ecut=    90.00 Ry     beta= 0.70
     Davidson diagonalization with overlap
     ethr =  6.42E-05,  avg # of iterations =  2.5

     total cpu time spent up to now is      223.3 secs

     total energy              =    -275.98735829 Ry
     estimated scf accuracy    <       0.00083446 Ry

     iteration #  4     ecut=    90.00 Ry     beta= 0.70
     Davidson diagonalization with overlap
     ethr =  1.30E-06,  avg # of iterations =  3.8

     total cpu time spent up to now is      236.2 secs

     total energy              =    -275.98764674 Ry
     estimated scf accuracy    <       0.00076228 Ry

     iteration #  5     ecut=    90.00 Ry     beta= 0.70
     Davidson diagonalization with overlap
     ethr =  1.19E-06,  avg # of iterations =  2.0

     total cpu time spent up to now is      245.3 secs

     total energy              =    -275.98776012 Ry
     estimated scf accuracy    <       0.00004000 Ry

     iteration #  6     ecut=    90.00 Ry     beta= 0.70
     Davidson diagonalization with overlap
     ethr =  6.25E-08,  avg # of iterations =  4.6

     total cpu time spent up to now is      259.8 secs

     total energy              =    -275.98778224 Ry
     estimated scf accuracy    <       0.00008475 Ry

     iteration #  7     ecut=    90.00 Ry     beta= 0.70
     Davidson diagonalization with overlap
     ethr =  6.25E-08,  avg # of iterations =  2.6

     total cpu time spent up to now is      269.9 secs

     total energy              =    -275.98778822 Ry
     estimated scf accuracy    <       0.00000608 Ry

     iteration #  8     ecut=    90.00 Ry     beta= 0.70
     Davidson diagonalization with overlap
     ethr =  9.51E-09,  avg # of iterations =  3.6

     total cpu time spent up to now is      281.5 secs

     total energy              =    -275.98779111 Ry
     estimated scf accuracy    <       0.00000154 Ry

     iteration #  9     ecut=    90.00 Ry     beta= 0.70
     Davidson diagonalization with overlap
     ethr =  2.40E-09,  avg # of iterations =  2.0

     total cpu time spent up to now is      290.1 secs

     total energy              =    -275.98779121 Ry
     estimated scf accuracy    <       0.00000027 Ry

     iteration # 10     ecut=    90.00 Ry     beta= 0.70
     Davidson diagonalization with overlap
     ethr =  4.29E-10,  avg # of iterations =  2.6

     total cpu time spent up to now is      299.4 secs

     End of self-consistent calculation

     Number of k-points >= 100: set verbosity='high' to print the bands.

     highest occupied level (ev):    -3.1297

!    total energy              =    -275.98779122 Ry
     estimated scf accuracy    <       0.00000004 Ry

     The total energy is the sum of the following terms:
     one-electron contribution =    -228.38751911 Ry
     hartree contribution      =     135.44161094 Ry
     xc contribution           =     -67.46814224 Ry
     ewald contribution        =    -115.57374081 Ry

     convergence has been achieved in  10 iterations

     Forces acting on atoms (cartesian axes, Ry/au):

     atom    1 type  2   force =     0.00000000    0.05643127    0.05504370
     atom    2 type  2   force =     0.00000000   -0.05643104    0.05504307
     atom    3 type  2   force =     0.00000000    0.05643147    0.05504363
     atom    4 type  2   force =     0.00000000   -0.05643106    0.05504303
     atom    5 type  2   force =     0.00000000   -0.05509579    0.04839550
     atom    6 type  2   force =     0.00000000    0.05509568    0.04839543
     atom    7 type  2   force =     0.00000000   -0.05509580    0.04839547
     atom    8 type  2   force =     0.00000000    0.05509561    0.04839537
     atom    9 type  1   force =     0.00000000    0.00068378   -0.03134440
     atom   10 type  1   force =     0.00000000   -0.00068375   -0.03134392
     atom   11 type  1   force =     0.00000000    0.00068378   -0.03134428
     atom   12 type  1   force =     0.00000000   -0.00068377   -0.03134387
     atom   13 type  1   force =     0.00000000   -0.04174649   -0.01913122
     atom   14 type  1   force =     0.00000000    0.04174626   -0.01913112
     atom   15 type  1   force =     0.00000000   -0.04174669   -0.01913128
     atom   16 type  1   force =     0.00000000    0.04174630   -0.01913114
     atom   17 type  1   force =    -0.04052777    0.02022678   -0.02648177
     atom   18 type  1   force =     0.04052770   -0.02022674   -0.02648174
     atom   19 type  1   force =    -0.04052770   -0.02022674   -0.02648174
     atom   20 type  1   force =     0.04052777    0.02022678   -0.02648177
     atom   21 type  1   force =    -0.04052782    0.02022679   -0.02648176
     atom   22 type  1   force =     0.04052767   -0.02022671   -0.02648171
     atom   23 type  1   force =    -0.04052767   -0.02022671   -0.02648171
     atom   24 type  1   force =     0.04052782    0.02022679   -0.02648176

     Total force =     0.284179     Total SCF correction =     0.000211


     Computing stress (Cartesian axis) and pressure

          total   stress  (Ry/bohr**3)                   (kbar)     P=      -32.55
  -0.00043312   0.00000000   0.00000000          -63.71        0.00        0.00
   0.00000000   0.00006681   0.00000000            0.00        9.83        0.00
   0.00000000   0.00000000  -0.00029741            0.00        0.00      -43.75

     Energy error            =      6.3E-02 Ry
     Gradient error          =      5.6E-02 Ry/Bohr

     number of scf cycles    =   2
     number of bfgs steps    =   1

     energy             old  =    -275.9243121533 Ry
     energy             new  =    -275.9877912174 Ry

     CASE: energy            _new < energy            _old

     new trust radius        =       0.0529907587 bohr
     new conv_thr            =       0.0000001000 Ry


ATOMIC_POSITIONS (crystal)
O                0.0000000000        0.6646877847        0.0591933198
O                0.0000000000        0.3353122251        0.5591933260
O                0.5000000000        0.1646877941        0.0591933189
O                0.5000000000        0.8353122176        0.5591933232
O                0.5000000000        0.8330343046        0.9316894859
O                0.5000000000        0.1669657032        0.4316894682
O                0.0000000000        0.3330342992        0.9316895007
O                0.0000000000        0.6669657068        0.4316894739
H                0.0000000000        0.6634608117        0.1999512953
H                0.0000000000        0.3365391887        0.6999512889
H                0.5000000000        0.1634608139        0.1999512885
H                0.5000000000        0.8365391874        0.6999512841
H                0.0000000000        0.5370981842        0.0183668674
H                0.0000000000        0.4629018083        0.5183668639
H                0.5000000000        0.0370981914        0.0183668676
H                0.5000000000        0.9629018007        0.5183668648
H                0.6861189864        0.7707579947        0.9843995285
H                0.3138810218        0.2292420022        0.4843995251
H                0.6861189782        0.2292420022        0.4843995251
H                0.3138810136        0.7707579947        0.9843995285
H                0.1861190005        0.2707579886        0.9843995338
H                0.8138810216        0.7292420036        0.4843995270
H                0.1861189784        0.7292420036        0.4843995270
H                0.8138809995        0.2707579886        0.9843995338



     Writing config-only to output data dir ./iceIh/iceIh.save/ :
     XML data file
     NEW-OLD atomic charge density approx. for the potential

     total cpu time spent up to now is      308.6 secs

     per-process dynamical memory:    59.9 Mb

     Self-consistent Calculation

     iteration #  1     ecut=    90.00 Ry     beta= 0.70
     Davidson diagonalization with overlap
     ethr =  1.00E-06,  avg # of iterations =  8.0

     total cpu time spent up to now is      331.2 secs

     total energy              =    -276.01586070 Ry
     estimated scf accuracy    <       0.00818260 Ry

     iteration #  2     ecut=    90.00 Ry     beta= 0.70
     Davidson diagonalization with overlap
     ethr =  1.28E-05,  avg # of iterations =  3.0

     total cpu time spent up to now is      341.9 secs

     total energy              =    -276.01758082 Ry
     estimated scf accuracy    <       0.00237432 Ry

     iteration #  3     ecut=    90.00 Ry     beta= 0.70
     Davidson diagonalization with overlap
     ethr =  3.71E-06,  avg # of iterations =  3.0

     total cpu time spent up to now is      352.2 secs

     total energy              =    -276.01815462 Ry
     estimated scf accuracy    <       0.00012193 Ry

     iteration #  4     ecut=    90.00 Ry     beta= 0.70
     Davidson diagonalization with overlap
     ethr =  1.91E-07,  avg # of iterations =  2.0

     total cpu time spent up to now is      361.2 secs

     total energy              =    -276.01817507 Ry
     estimated scf accuracy    <       0.00001417 Ry

     iteration #  5     ecut=    90.00 Ry     beta= 0.70
     Davidson diagonalization with overlap
     ethr =  2.21E-08,  avg # of iterations =  2.9

     total cpu time spent up to now is      372.0 secs

     total energy              =    -276.01817982 Ry
     estimated scf accuracy    <       0.00000083 Ry

     iteration #  6     ecut=    90.00 Ry     beta= 0.70
     Davidson diagonalization with overlap
     ethr =  1.30E-09,  avg # of iterations =  2.8

     total cpu time spent up to now is      381.8 secs

     total energy              =    -276.01817985 Ry
     estimated scf accuracy    <       0.00000027 Ry

     iteration #  7     ecut=    90.00 Ry     beta= 0.70
     Davidson diagonalization with overlap
     ethr =  4.25E-10,  avg # of iterations =  3.8

     total cpu time spent up to now is      393.4 secs

     End of self-consistent calculation

     Number of k-points >= 100: set verbosity='high' to print the bands.

     highest occupied level (ev):    -3.1741

!    total energy              =    -276.01817990 Ry
     estimated scf accuracy    <       0.00000009 Ry

     The total energy is the sum of the following terms:
     one-electron contribution =    -229.69536595 Ry
     hartree contribution      =     136.03864009 Ry
     xc contribution           =     -67.59987924 Ry
     ewald contribution        =    -114.76157480 Ry

     convergence has been achieved in   7 iterations

     Forces acting on atoms (cartesian axes, Ry/au):

     atom    1 type  2   force =     0.00000000   -0.01091808    0.00287837
     atom    2 type  2   force =     0.00000000    0.01091795    0.00287829
     atom    3 type  2   force =     0.00000000   -0.01091813    0.00287832
     atom    4 type  2   force =     0.00000000    0.01091796    0.00287828
     atom    5 type  2   force =     0.00000000   -0.01304518    0.02144621
     atom    6 type  2   force =     0.00000000    0.01304516    0.02144622
     atom    7 type  2   force =     0.00000000   -0.01304520    0.02144619
     atom    8 type  2   force =     0.00000000    0.01304514    0.02144619
     atom    9 type  1   force =     0.00000000    0.00189738   -0.00476055
     atom   10 type  1   force =     0.00000000   -0.00189735   -0.00476043
     atom   11 type  1   force =     0.00000000    0.00189739   -0.00476048
     atom   12 type  1   force =     0.00000000   -0.00189736   -0.00476041
     atom   13 type  1   force =     0.00000000    0.01497250   -0.00062296
     atom   14 type  1   force =     0.00000000   -0.01497240   -0.00062297
     atom   15 type  1   force =     0.00000000    0.01497252   -0.00062297
     atom   16 type  1   force =     0.00000000   -0.01497239   -0.00062298
     atom   17 type  1   force =    -0.01732747    0.00387691   -0.00947054
     atom   18 type  1   force =     0.01732745   -0.00387690   -0.00947054
     atom   19 type  1   force =    -0.01732745   -0.00387690   -0.00947054
     atom   20 type  1   force =     0.01732747    0.00387691   -0.00947054
     atom   21 type  1   force =    -0.01732751    0.00387692   -0.00947054
     atom   22 type  1   force =     0.01732743   -0.00387689   -0.00947053
     atom   23 type  1   force =    -0.01732743   -0.00387689   -0.00947053
     atom   24 type  1   force =     0.01732751    0.00387692   -0.00947054

     Total force =     0.085284     Total SCF correction =     0.000204


     Computing stress (Cartesian axis) and pressure

          total   stress  (Ry/bohr**3)                   (kbar)     P=      -20.06
  -0.00019878   0.00000000   0.00000000          -29.24        0.00        0.00
   0.00000000  -0.00014122  -0.00000000            0.00      -20.77       -0.00
   0.00000000  -0.00000000  -0.00006917            0.00       -0.00      -10.18

     Energy error            =      3.0E-02 Ry
     Gradient error          =      2.1E-02 Ry/Bohr

     number of scf cycles    =   3
     number of bfgs steps    =   2

     energy             old  =    -275.9877912174 Ry
     energy             new  =    -276.0181799018 Ry

     CASE: energy            _new < energy            _old

     new trust radius        =       0.0320440524 bohr
     new conv_thr            =       0.0000001000 Ry


ATOMIC_POSITIONS (crystal)
O                0.0000000000        0.6639088320        0.0595770034
O                0.0000000000        0.3360911676        0.5595770012
O                0.5000000000        0.1639088378        0.0595769973
O                0.5000000000        0.8360911612        0.5595769971
O                0.5000000000        0.8318203597        0.9336602547
O                0.5000000000        0.1681796463        0.4336602377
O                0.0000000000        0.3318203532        0.9336602677
O                0.0000000000        0.6681796477        0.4336602407
H                0.0000000000        0.6636156871        0.1994524534
H                0.0000000000        0.3363843156        0.6994524582
H                0.5000000000        0.1636156903        0.1994524522
H                0.5000000000        0.8363843133        0.6994524552
H                0.0000000000        0.5382213913        0.0182780734
H                0.0000000000        0.4617786087        0.5182780693
H                0.5000000000        0.0382213998        0.0182780729
H                0.5000000000        0.9617786017        0.5182780689
H                0.6834975422        0.7711425591        0.9835161202
H                0.3165024631        0.2288574391        0.4835161164
H                0.6834975369        0.2288574391        0.4835161164
H                0.3165024578        0.7711425591        0.9835161202
H                0.1834975502        0.2711425538        0.9835161256
H                0.8165024607        0.7288574414        0.4835161192
H                0.1834975393        0.7288574414        0.4835161192
H                0.8165024498        0.2711425538        0.9835161256



     Writing config-only to output data dir ./iceIh/iceIh.save/ :
     XML data file
     NEW-OLD atomic charge density approx. for the potential

     total cpu time spent up to now is      402.7 secs

     per-process dynamical memory:    62.0 Mb

     Self-consistent Calculation

     iteration #  1     ecut=    90.00 Ry     beta= 0.70
     Davidson diagonalization with overlap
     ethr =  1.00E-06,  avg # of iterations =  6.8

     total cpu time spent up to now is      421.4 secs

     total energy              =    -276.02063298 Ry
     estimated scf accuracy    <       0.00284458 Ry

     iteration #  2     ecut=    90.00 Ry     beta= 0.70
     Davidson diagonalization with overlap
     ethr =  4.44E-06,  avg # of iterations =  3.0

     total cpu time spent up to now is      432.6 secs

     total energy              =    -276.02137547 Ry
     estimated scf accuracy    <       0.00114734 Ry

     iteration #  3     ecut=    90.00 Ry     beta= 0.70
     Davidson diagonalization with overlap
     ethr =  1.79E-06,  avg # of iterations =  2.0

     total cpu time spent up to now is      441.4 secs

     total energy              =    -276.02158416 Ry
     estimated scf accuracy    <       0.00003739 Ry

     iteration #  4     ecut=    90.00 Ry     beta= 0.70
     Davidson diagonalization with overlap
     ethr =  5.84E-08,  avg # of iterations =  3.0

     total cpu time spent up to now is      453.4 secs

     total energy              =    -276.02160396 Ry
     estimated scf accuracy    <       0.00002112 Ry

     iteration #  5     ecut=    90.00 Ry     beta= 0.70
     Davidson diagonalization with overlap
     ethr =  3.30E-08,  avg # of iterations =  2.0

     total cpu time spent up to now is      462.1 secs

     total energy              =    -276.02160500 Ry
     estimated scf accuracy    <       0.00000324 Ry

     iteration #  6     ecut=    90.00 Ry     beta= 0.70
     Davidson diagonalization with overlap
     ethr =  5.06E-09,  avg # of iterations =  3.0

     total cpu time spent up to now is      473.6 secs

     total energy              =    -276.02160612 Ry
     estimated scf accuracy    <       0.00000095 Ry

     iteration #  7     ecut=    90.00 Ry     beta= 0.70
     Davidson diagonalization with overlap
     ethr =  1.48E-09,  avg # of iterations =  2.0

     total cpu time spent up to now is      482.9 secs

     End of self-consistent calculation

     Number of k-points >= 100: set verbosity='high' to print the bands.

     highest occupied level (ev):    -3.2073

!    total energy              =    -276.02160625 Ry
     estimated scf accuracy    <       0.00000003 Ry

     The total energy is the sum of the following terms:
     one-electron contribution =    -231.45653961 Ry
     hartree contribution      =     136.83675223 Ry
     xc contribution           =     -67.77344806 Ry
     ewald contribution        =    -113.62837081 Ry

     convergence has been achieved in   7 iterations

     Forces acting on atoms (cartesian axes, Ry/au):

     atom    1 type  2   force =     0.00000000    0.00354623    0.00043800
     atom    2 type  2   force =     0.00000000   -0.00354621    0.00043809
     atom    3 type  2   force =     0.00000000    0.00354625    0.00043807
     atom    4 type  2   force =     0.00000000   -0.00354621    0.00043811
     atom    5 type  2   force =     0.00000000    0.01353426   -0.00339380
     atom    6 type  2   force =     0.00000000   -0.01353427   -0.00339378
     atom    7 type  2   force =     0.00000000    0.01353427   -0.00339382
     atom    8 type  2   force =     0.00000000   -0.01353426   -0.00339376
     atom    9 type  1   force =     0.00000000   -0.00033295    0.00014881
     atom   10 type  1   force =     0.00000000    0.00033295    0.00014874
     atom   11 type  1   force =     0.00000000   -0.00033294    0.00014877
     atom   12 type  1   force =     0.00000000    0.00033295    0.00014873
     atom   13 type  1   force =     0.00000000    0.00156415   -0.00152009
     atom   14 type  1   force =     0.00000000   -0.00156417   -0.00152009
     atom   15 type  1   force =     0.00000000    0.00156412   -0.00152011
     atom   16 type  1   force =     0.00000000   -0.00156416   -0.00152010
     atom   17 type  1   force =     0.00277178   -0.00924660    0.00216353
     atom   18 type  1   force =    -0.00277180    0.00924661    0.00216353
     atom   19 type  1   force =     0.00277180    0.00924661    0.00216353
     atom   20 type  1   force =    -0.00277178   -0.00924660    0.00216353
     atom   21 type  1   force =     0.00277176   -0.00924660    0.00216353
     atom   22 type  1   force =    -0.00277178    0.00924660    0.00216352
     atom   23 type  1   force =     0.00277178    0.00924660    0.00216352
     atom   24 type  1   force =    -0.00277176   -0.00924660    0.00216353

     Total force =     0.040402     Total SCF correction =     0.000204


     Computing stress (Cartesian axis) and pressure

          total   stress  (Ry/bohr**3)                   (kbar)     P=       -0.59
  -0.00001456   0.00000000   0.00000000           -2.14        0.00        0.00
   0.00000000   0.00000136   0.00000000            0.00        0.20        0.00
   0.00000000   0.00000000   0.00000114            0.00        0.00        0.17

     Energy error            =      3.4E-03 Ry
     Gradient error          =      1.4E-02 Ry/Bohr

     number of scf cycles    =   4
     number of bfgs steps    =   3

     energy             old  =    -276.0181799018 Ry
     energy             new  =    -276.0216062530 Ry

     CASE: energy            _new < energy            _old

     new trust radius        =       0.0101582346 bohr
     new conv_thr            =       0.0000000343 Ry


ATOMIC_POSITIONS (crystal)
O                0.0000000000        0.6641287173        0.0596430250
O                0.0000000000        0.3358712831        0.5596430274
O                0.5000000000        0.1641287245        0.0596430230
O                0.5000000000        0.8358712769        0.5596430241
O                0.5000000000        0.8325113027        0.9335283182
O                0.5000000000        0.1674887022        0.4335283022
O                0.0000000000        0.3325112970        0.9335283300
O                0.0000000000        0.6674887042        0.4335283059
H                0.0000000000        0.6636009280        0.1994367810
H                0.0000000000        0.3363990748        0.6994367822
H                0.5000000000        0.1636009316        0.1994367776
H                0.5000000000        0.8363990720        0.6994367791
H                0.0000000000        0.5382996813        0.0181727702
H                0.0000000000        0.4617003178        0.5181727662
H                0.5000000000        0.0382996878        0.0181727684
H                0.5000000000        0.9617003113        0.5181727651
H                0.6836802497        0.7706513027        0.9836095650
H                0.3163197538        0.2293486959        0.4836095611
H                0.6836802462        0.2293486959        0.4836095611
H                0.3163197503        0.7706513027        0.9836095650
H                0.1836802562        0.2706512974        0.9836095706
H                0.8163197524        0.7293486977        0.4836095635
H                0.1836802476        0.7293486977        0.4836095635
H                0.8163197438        0.2706512974        0.9836095706



     Writing config-only to output data dir ./iceIh/iceIh.save/ :
     XML data file
     NEW-OLD atomic charge density approx. for the potential

     total cpu time spent up to now is      492.2 secs

     per-process dynamical memory:    62.0 Mb

     Self-consistent Calculation

     iteration #  1     ecut=    90.00 Ry     beta= 0.70
     Davidson diagonalization with overlap
     ethr =  1.00E-06,  avg # of iterations =  3.1

     total cpu time spent up to now is      505.0 secs

     total energy              =    -276.02237930 Ry
     estimated scf accuracy    <       0.00015136 Ry

     iteration #  2     ecut=    90.00 Ry     beta= 0.70
     Davidson diagonalization with overlap
     ethr =  2.37E-07,  avg # of iterations =  3.0

     total cpu time spent up to now is      515.8 secs

     total energy              =    -276.02241679 Ry
     estimated scf accuracy    <       0.00005276 Ry

     iteration #  3     ecut=    90.00 Ry     beta= 0.70
     Davidson diagonalization with overlap
     ethr =  8.24E-08,  avg # of iterations =  2.7

     total cpu time spent up to now is      525.6 secs

     total energy              =    -276.02242740 Ry
     estimated scf accuracy    <       0.00000138 Ry

     iteration #  4     ecut=    90.00 Ry     beta= 0.70
     Davidson diagonalization with overlap
     ethr =  2.16E-09,  avg # of iterations =  3.4

     total cpu time spent up to now is      537.8 secs

     total energy              =    -276.02242784 Ry
     estimated scf accuracy    <       0.00000099 Ry

     iteration #  5     ecut=    90.00 Ry     beta= 0.70
     Davidson diagonalization with overlap
     ethr =  1.54E-09,  avg # of iterations =  2.0

     total cpu time spent up to now is      546.7 secs

     total energy              =    -276.02242790 Ry
     estimated scf accuracy    <       0.00000013 Ry

     iteration #  6     ecut=    90.00 Ry     beta= 0.70
     Davidson diagonalization with overlap
     ethr =  2.04E-10,  avg # of iterations =  3.5

     total cpu time spent up to now is      558.9 secs

     total energy              =    -276.02242796 Ry
     estimated scf accuracy    <       0.00000008 Ry

     iteration #  7     ecut=    90.00 Ry     beta= 0.70
     Davidson diagonalization with overlap
     ethr =  1.19E-10,  avg # of iterations =  2.0

     total cpu time spent up to now is      567.5 secs

     End of self-consistent calculation

     Number of k-points >= 100: set verbosity='high' to print the bands.

     highest occupied level (ev):    -3.2083

!    total energy              =    -276.02242797 Ry
     estimated scf accuracy    <          3.5E-09 Ry

     The total energy is the sum of the following terms:
     one-electron contribution =    -231.14198699 Ry
     hartree contribution      =     136.69513758 Ry
     xc contribution           =     -67.74207075 Ry
     ewald contribution        =    -113.83350780 Ry

     convergence has been achieved in   7 iterations

     Forces acting on atoms (cartesian axes, Ry/au):

     atom    1 type  2   force =     0.00000000    0.00226281   -0.00153116
     atom    2 type  2   force =     0.00000000   -0.00226280   -0.00153116
     atom    3 type  2   force =     0.00000000    0.00226278   -0.00153117
     atom    4 type  2   force =     0.00000000   -0.00226279   -0.00153116
     atom    5 type  2   force =     0.00000000    0.00458524    0.00290279
     atom    6 type  2   force =     0.00000000   -0.00458524    0.00290282
     atom    7 type  2   force =     0.00000000    0.00458524    0.00290277
     atom    8 type  2   force =     0.00000000   -0.00458524    0.00290281
     atom    9 type  1   force =     0.00000000   -0.00016920    0.00143533
     atom   10 type  1   force =     0.00000000    0.00016920    0.00143534
     atom   11 type  1   force =     0.00000000   -0.00016919    0.00143535
     atom   12 type  1   force =     0.00000000    0.00016919    0.00143535
     atom   13 type  1   force =     0.00000000    0.00249903   -0.00118633
     atom   14 type  1   force =     0.00000000   -0.00249905   -0.00118633
     atom   15 type  1   force =     0.00000000    0.00249904   -0.00118634
     atom   16 type  1   force =     0.00000000   -0.00249904   -0.00118634
     atom   17 type  1   force =    -0.00186248   -0.00463724   -0.00081032
     atom   18 type  1   force =     0.00186247    0.00463724   -0.00081033
     atom   19 type  1   force =    -0.00186247    0.00463724   -0.00081033
     atom   20 type  1   force =     0.00186248   -0.00463724   -0.00081032
     atom   21 type  1   force =    -0.00186249   -0.00463724   -0.00081032
     atom   22 type  1   force =     0.00186247    0.00463724   -0.00081033
     atom   23 type  1   force =    -0.00186247    0.00463724   -0.00081033
     atom   24 type  1   force =     0.00186249   -0.00463724   -0.00081032

     Total force =     0.019790     Total SCF correction =     0.000053


     Computing stress (Cartesian axis) and pressure

          total   stress  (Ry/bohr**3)                   (kbar)     P=       -3.99
  -0.00005692   0.00000000   0.00000000           -8.37        0.00        0.00
   0.00000000  -0.00002218   0.00000000            0.00       -3.26        0.00
   0.00000000   0.00000000  -0.00000221            0.00        0.00       -0.32

     Energy error            =      8.2E-04 Ry
     Gradient error          =      4.6E-03 Ry/Bohr

     number of scf cycles    =   5
     number of bfgs steps    =   4

     energy             old  =    -276.0216062530 Ry
     energy             new  =    -276.0224279674 Ry

     CASE: energy            _new < energy            _old

     new trust radius        =       0.0122735561 bohr
     new conv_thr            =       0.0000000082 Ry


ATOMIC_POSITIONS (crystal)
O                0.0000000000        0.6644956287        0.0595780419
O                0.0000000000        0.3355043729        0.5595780453
O                0.5000000000        0.1644956338        0.0595780402
O                0.5000000000        0.8355043676        0.5595780426
O                0.5000000000        0.8332550163        0.9339622178
O                0.5000000000        0.1667449875        0.4339622052
O                0.0000000000        0.3332550114        0.9339622269
O                0.0000000000        0.6667449894        0.4339622084
H                0.0000000000        0.6635854171        0.1995349716
H                0.0000000000        0.3364145865        0.6995349733
H                0.5000000000        0.1635854215        0.1995349696
H                0.5000000000        0.8364145829        0.6995349705
H                0.0000000000        0.5386447602        0.0179540487
H                0.0000000000        0.4613552372        0.5179540454
H                0.5000000000        0.0386447666        0.0179540457
H                0.5000000000        0.9613552316        0.5179540429
H                0.6832065390        0.7699259836        0.9834853715
H                0.3167934624        0.2300740154        0.4834853668
H                0.6832065376        0.2300740154        0.4834853668
H                0.3167934610        0.7699259836        0.9834853715
H                0.1832065416        0.2699259785        0.9834853776
H                0.8167934615        0.7300740170        0.4834853691
H                0.1832065385        0.7300740170        0.4834853691
H                0.8167934584        0.2699259785        0.9834853776



     Writing config-only to output data dir ./iceIh/iceIh.save/ :
     XML data file
     NEW-OLD atomic charge density approx. for the potential

     total cpu time spent up to now is      576.8 secs

     per-process dynamical memory:    62.5 Mb

     Self-consistent Calculation

     iteration #  1     ecut=    90.00 Ry     beta= 0.70
     Davidson diagonalization with overlap
     ethr =  1.00E-06,  avg # of iterations =  4.0

     total cpu time spent up to now is      590.3 secs

     total energy              =    -276.02301922 Ry
     estimated scf accuracy    <       0.00011195 Ry

     iteration #  2     ecut=    90.00 Ry     beta= 0.70
     Davidson diagonalization with overlap
     ethr =  1.75E-07,  avg # of iterations =  2.0

     total cpu time spent up to now is      600.0 secs

     total energy              =    -276.02304015 Ry
     estimated scf accuracy    <       0.00001487 Ry

     iteration #  3     ecut=    90.00 Ry     beta= 0.70
     Davidson diagonalization with overlap
     ethr =  2.32E-08,  avg # of iterations =  2.0

     total cpu time spent up to now is      609.5 secs

     total energy              =    -276.02304367 Ry
     estimated scf accuracy    <       0.00000104 Ry

     iteration #  4     ecut=    90.00 Ry     beta= 0.70
     Davidson diagonalization with overlap
     ethr =  1.62E-09,  avg # of iterations =  2.0

     total cpu time spent up to now is      618.3 secs

     total energy              =    -276.02304380 Ry
     estimated scf accuracy    <       0.00000013 Ry

     iteration #  5     ecut=    90.00 Ry     beta= 0.70
     Davidson diagonalization with overlap
     ethr =  2.08E-10,  avg # of iterations =  2.5

     total cpu time spent up to now is      628.4 secs

     total energy              =    -276.02304384 Ry
     estimated scf accuracy    <       0.00000002 Ry

     iteration #  6     ecut=    90.00 Ry     beta= 0.70
     Davidson diagonalization with overlap
     ethr =  2.75E-11,  avg # of iterations =  2.4

     total cpu time spent up to now is      638.1 secs

     End of self-consistent calculation

     Number of k-points >= 100: set verbosity='high' to print the bands.

     highest occupied level (ev):    -3.2129

!    total energy              =    -276.02304384 Ry
     estimated scf accuracy    <          4.3E-09 Ry

     The total energy is the sum of the following terms:
     one-electron contribution =    -230.98961032 Ry
     hartree contribution      =     136.62485290 Ry
     xc contribution           =     -67.72597895 Ry
     ewald contribution        =    -113.93230747 Ry

     convergence has been achieved in   6 iterations

     Forces acting on atoms (cartesian axes, Ry/au):

     atom    1 type  2   force =     0.00000000    0.00147191   -0.00017928
     atom    2 type  2   force =     0.00000000   -0.00147193   -0.00017928
     atom    3 type  2   force =     0.00000000    0.00147190   -0.00017928
     atom    4 type  2   force =     0.00000000   -0.00147192   -0.00017929
     atom    5 type  2   force =     0.00000000   -0.00114491    0.00485933
     atom    6 type  2   force =     0.00000000    0.00114491    0.00485935
     atom    7 type  2   force =     0.00000000   -0.00114491    0.00485932
     atom    8 type  2   force =     0.00000000    0.00114491    0.00485934
     atom    9 type  1   force =     0.00000000   -0.00000290   -0.00008194
     atom   10 type  1   force =     0.00000000    0.00000291   -0.00008192
     atom   11 type  1   force =     0.00000000   -0.00000290   -0.00008193
     atom   12 type  1   force =     0.00000000    0.00000291   -0.00008192
     atom   13 type  1   force =     0.00000000    0.00238890   -0.00076738
     atom   14 type  1   force =     0.00000000   -0.00238889   -0.00076738
     atom   15 type  1   force =     0.00000000    0.00238890   -0.00076738
     atom   16 type  1   force =     0.00000000   -0.00238889   -0.00076738
     atom   17 type  1   force =    -0.00245406   -0.00142625   -0.00191537
     atom   18 type  1   force =     0.00245406    0.00142625   -0.00191537
     atom   19 type  1   force =    -0.00245406    0.00142625   -0.00191537
     atom   20 type  1   force =     0.00245406   -0.00142625   -0.00191537
     atom   21 type  1   force =    -0.00245406   -0.00142625   -0.00191537
     atom   22 type  1   force =     0.00245406    0.00142625   -0.00191537
     atom   23 type  1   force =    -0.00245406    0.00142625   -0.00191537
     atom   24 type  1   force =     0.00245406   -0.00142625   -0.00191537

     Total force =     0.015083     Total SCF correction =     0.000066


     Computing stress (Cartesian axis) and pressure

          total   stress  (Ry/bohr**3)                   (kbar)     P=       -5.69
  -0.00006651   0.00000000   0.00000000           -9.78        0.00        0.00
   0.00000000  -0.00003165  -0.00000000            0.00       -4.66       -0.00
   0.00000000  -0.00000000  -0.00001796            0.00       -0.00       -2.64

     Energy error            =      6.2E-04 Ry
     Gradient error          =      4.9E-03 Ry/Bohr

     number of scf cycles    =   6
     number of bfgs steps    =   5

     energy             old  =    -276.0224279674 Ry
     energy             new  =    -276.0230438426 Ry

     CASE: energy            _new < energy            _old

     new trust radius        =       0.0145965699 bohr
     new conv_thr            =       0.0000000062 Ry


ATOMIC_POSITIONS (crystal)
O                0.0000000000        0.6649457005        0.0596227461
O                0.0000000000        0.3350542991        0.5596227521
O                0.5000000000        0.1649457055        0.0596227474
O                0.5000000000        0.8350542953        0.5596227498
O                0.5000000000        0.8338645453        0.9348174555
O                0.5000000000        0.1661354567        0.4348174472
O                0.0000000000        0.3338645417        0.9348174613
O                0.0000000000        0.6661354584        0.4348174501
H                0.0000000000        0.6635791990        0.1995047156
H                0.0000000000        0.3364208056        0.6995047174
H                0.5000000000        0.1635792039        0.1995047135
H                0.5000000000        0.8364208012        0.6995047152
H                0.0000000000        0.5392176697        0.0176732983
H                0.0000000000        0.4607823285        0.5176732953
H                0.5000000000        0.0392176738        0.0176732935
H                0.5000000000        0.9607823239        0.5176732914
H                0.6824402601        0.7691010192        0.9831909027
H                0.3175597389        0.2308989806        0.4831908971
H                0.6824402611        0.2308989806        0.4831908971
H                0.3175597399        0.7691010192        0.9831909027
H                0.1824402587        0.2691010145        0.9831909091
H                0.8175597387        0.7308989817        0.4831908992
H                0.1824402613        0.7308989817        0.4831908992
H                0.8175597413        0.2691010145        0.9831909091



     Writing config-only to output data dir ./iceIh/iceIh.save/ :
     XML data file
     NEW-OLD atomic charge density approx. for the potential

     total cpu time spent up to now is      647.3 secs

     per-process dynamical memory:    62.5 Mb

     Self-consistent Calculation

     iteration #  1     ecut=    90.00 Ry     beta= 0.70
     Davidson diagonalization with overlap
     ethr =  1.00E-06,  avg # of iterations =  4.0

     total cpu time spent up to now is      661.0 secs

     total energy              =    -276.02341775 Ry
     estimated scf accuracy    <       0.00013276 Ry

     iteration #  2     ecut=    90.00 Ry     beta= 0.70
     Davidson diagonalization with overlap
     ethr =  2.07E-07,  avg # of iterations =  2.0

     total cpu time spent up to now is      669.1 secs

     total energy              =    -276.02343470 Ry
     estimated scf accuracy    <       0.00000695 Ry

     iteration #  3     ecut=    90.00 Ry     beta= 0.70
     Davidson diagonalization with overlap
     ethr =  1.09E-08,  avg # of iterations =  3.0

     total cpu time spent up to now is      679.6 secs

     total energy              =    -276.02343667 Ry
     estimated scf accuracy    <       0.00000184 Ry

     iteration #  4     ecut=    90.00 Ry     beta= 0.70
     Davidson diagonalization with overlap
     ethr =  2.87E-09,  avg # of iterations =  3.0

     total cpu time spent up to now is      689.2 secs

     total energy              =    -276.02343707 Ry
     estimated scf accuracy    <       0.00000018 Ry

     iteration #  5     ecut=    90.00 Ry     beta= 0.70
     Davidson diagonalization with overlap
     ethr =  2.86E-10,  avg # of iterations =  2.3

     total cpu time spent up to now is      699.4 secs

     total energy              =    -276.02343709 Ry
     estimated scf accuracy    <       0.00000007 Ry

     iteration #  6     ecut=    90.00 Ry     beta= 0.70
     Davidson diagonalization with overlap
     ethr =  1.08E-10,  avg # of iterations =  2.0

     total cpu time spent up to now is      708.1 secs

     End of self-consistent calculation

     Number of k-points >= 100: set verbosity='high' to print the bands.

     highest occupied level (ev):    -3.2227

!    total energy              =    -276.02343710 Ry
     estimated scf accuracy    <          1.5E-09 Ry

     The total energy is the sum of the following terms:
     one-electron contribution =    -231.03942830 Ry
     hartree contribution      =     136.64604999 Ry
     xc contribution           =     -67.72986659 Ry
     ewald contribution        =    -113.90019219 Ry

     convergence has been achieved in   6 iterations

     Forces acting on atoms (cartesian axes, Ry/au):

     atom    1 type  2   force =     0.00000000    0.00100058   -0.00082254
     atom    2 type  2   force =     0.00000000   -0.00100056   -0.00082259
     atom    3 type  2   force =     0.00000000    0.00100055   -0.00082259
     atom    4 type  2   force =     0.00000000   -0.00100056   -0.00082259
     atom    5 type  2   force =     0.00000000   -0.00378869    0.00364565
     atom    6 type  2   force =     0.00000000    0.00378869    0.00364565
     atom    7 type  2   force =     0.00000000   -0.00378869    0.00364565
     atom    8 type  2   force =     0.00000000    0.00378868    0.00364565
     atom    9 type  1   force =     0.00000000    0.00003449    0.00023326
     atom   10 type  1   force =     0.00000000   -0.00003449    0.00023330
     atom   11 type  1   force =     0.00000000    0.00003448    0.00023330
     atom   12 type  1   force =     0.00000000   -0.00003448    0.00023330
     atom   13 type  1   force =     0.00000000    0.00153369   -0.00011584
     atom   14 type  1   force =     0.00000000   -0.00153370   -0.00011583
     atom   15 type  1   force =     0.00000000    0.00153371   -0.00011582
     atom   16 type  1   force =     0.00000000   -0.00153370   -0.00011582
     atom   17 type  1   force =    -0.00068857    0.00049436   -0.00147027
     atom   18 type  1   force =     0.00068857   -0.00049436   -0.00147026
     atom   19 type  1   force =    -0.00068857   -0.00049436   -0.00147026
     atom   20 type  1   force =     0.00068857    0.00049436   -0.00147027
     atom   21 type  1   force =    -0.00068856    0.00049437   -0.00147027
     atom   22 type  1   force =     0.00068857   -0.00049436   -0.00147026
     atom   23 type  1   force =    -0.00068857   -0.00049436   -0.00147026
     atom   24 type  1   force =     0.00068856    0.00049437   -0.00147027

     Total force =     0.012248     Total SCF correction =     0.000080


     Computing stress (Cartesian axis) and pressure

          total   stress  (Ry/bohr**3)                   (kbar)     P=       -5.13
  -0.00005353   0.00000000   0.00000000           -7.87        0.00        0.00
   0.00000000  -0.00003077   0.00000000            0.00       -4.53        0.00
   0.00000000   0.00000000  -0.00002028            0.00        0.00       -2.98

     Energy error            =      3.9E-04 Ry
     Gradient error          =      3.8E-03 Ry/Bohr

     number of scf cycles    =   7
     number of bfgs steps    =   6

     energy             old  =    -276.0230438426 Ry
     energy             new  =    -276.0234370989 Ry

     CASE: energy            _new < energy            _old

     new trust radius        =       0.0064474662 bohr
     new conv_thr            =       0.0000000039 Ry


ATOMIC_POSITIONS (crystal)
O                0.0000000000        0.6651695597        0.0595736288
O                0.0000000000        0.3348304413        0.5595736319
O                0.5000000000        0.1651695623        0.0595736274
O                0.5000000000        0.8348304377        0.5595736298
O                0.5000000000        0.8338672741        0.9352915703
O                0.5000000000        0.1661327276        0.4352915638
O                0.0000000000        0.3338672704        0.9352915751
O                0.0000000000        0.6661327288        0.4352915660
H                0.0000000000        0.6635785539        0.1995131415
H                0.0000000000        0.3364214509        0.6995131459
H                0.5000000000        0.1635785584        0.1995131419
H                0.5000000000        0.8364214466        0.6995131438
H                0.0000000000        0.5395063187        0.0175771337
H                0.0000000000        0.4604936780        0.5175771316
H                0.5000000000        0.0395063240        0.0175771296
H                0.5000000000        0.9604936741        0.5175771275
H                0.6822250856        0.7688304438        0.9830222729
H                0.3177749134        0.2311695562        0.4830222673
H                0.6822250866        0.2311695562        0.4830222673
H                0.3177749144        0.7688304438        0.9830222729
H                0.1822250835        0.2688304396        0.9830222791
H                0.8177749129        0.7311695573        0.4830222694
H                0.1822250871        0.7311695573        0.4830222694
H                0.8177749165        0.2688304396        0.9830222791



     Writing config-only to output data dir ./iceIh/iceIh.save/ :
     XML data file
     NEW-OLD atomic charge density approx. for the potential

     total cpu time spent up to now is      717.4 secs

     per-process dynamical memory:    62.5 Mb

     Self-consistent Calculation

     iteration #  1     ecut=    90.00 Ry     beta= 0.70
     Davidson diagonalization with overlap
     ethr =  1.00E-06,  avg # of iterations =  3.0

     Threshold (ethr) on eigenvalues was too large:
     Diagonalizing with lowered threshold

     Davidson diagonalization with overlap
     ethr =  5.99E-08,  avg # of iterations =  2.0

     total cpu time spent up to now is      737.2 secs

     total energy              =    -276.02353228 Ry
     estimated scf accuracy    <       0.00004145 Ry

     iteration #  2     ecut=    90.00 Ry     beta= 0.70
     Davidson diagonalization with overlap
     ethr =  6.48E-08,  avg # of iterations =  3.0

     total cpu time spent up to now is      747.9 secs

     total energy              =    -276.02353915 Ry
     estimated scf accuracy    <       0.00001438 Ry

     iteration #  3     ecut=    90.00 Ry     beta= 0.70
     Davidson diagonalization with overlap
     ethr =  2.25E-08,  avg # of iterations =  3.0

     total cpu time spent up to now is      758.3 secs

     total energy              =    -276.02354301 Ry
     estimated scf accuracy    <       0.00000073 Ry

     iteration #  4     ecut=    90.00 Ry     beta= 0.70
     Davidson diagonalization with overlap
     ethr =  1.14E-09,  avg # of iterations =  2.0

     total cpu time spent up to now is      767.0 secs

     total energy              =    -276.02354305 Ry
     estimated scf accuracy    <       0.00000016 Ry

     iteration #  5     ecut=    90.00 Ry     beta= 0.70
     Davidson diagonalization with overlap
     ethr =  2.56E-10,  avg # of iterations =  3.1

     total cpu time spent up to now is      777.6 secs

     total energy              =    -276.02354310 Ry
     estimated scf accuracy    <       0.00000001 Ry

     iteration #  6     ecut=    90.00 Ry     beta= 0.70
     Davidson diagonalization with overlap
     ethr =  1.74E-11,  avg # of iterations =  2.3

     total cpu time spent up to now is      787.0 secs

     total energy              =    -276.02354310 Ry
     estimated scf accuracy    <          4.7E-09 Ry

     iteration #  7     ecut=    90.00 Ry     beta= 0.70
     Davidson diagonalization with overlap
     ethr =  7.30E-12,  avg # of iterations =  3.1

     total cpu time spent up to now is      797.0 secs

     End of self-consistent calculation

     Number of k-points >= 100: set verbosity='high' to print the bands.

     highest occupied level (ev):    -3.2268

!    total energy              =    -276.02354310 Ry
     estimated scf accuracy    <          3.4E-11 Ry

     The total energy is the sum of the following terms:
     one-electron contribution =    -231.11355134 Ry
     hartree contribution      =     136.67975213 Ry
     xc contribution           =     -67.73699909 Ry
     ewald contribution        =    -113.85274480 Ry

     convergence has been achieved in   7 iterations

     Forces acting on atoms (cartesian axes, Ry/au):

     atom    1 type  2   force =     0.00000000    0.00072225    0.00016255
     atom    2 type  2   force =     0.00000000   -0.00072227    0.00016257
     atom    3 type  2   force =     0.00000000    0.00072227    0.00016257
     atom    4 type  2   force =     0.00000000   -0.00072227    0.00016256
     atom    5 type  2   force =     0.00000000   -0.00238515    0.00140844
     atom    6 type  2   force =     0.00000000    0.00238515    0.00140844
     atom    7 type  2   force =     0.00000000   -0.00238515    0.00140844
     atom    8 type  2   force =     0.00000000    0.00238515    0.00140844
     atom    9 type  1   force =     0.00000000    0.00018398   -0.00051323
     atom   10 type  1   force =     0.00000000   -0.00018398   -0.00051324
     atom   11 type  1   force =     0.00000000    0.00018397   -0.00051324
     atom   12 type  1   force =     0.00000000   -0.00018398   -0.00051324
     atom   13 type  1   force =     0.00000000    0.00100708   -0.00000692
     atom   14 type  1   force =     0.00000000   -0.00100706   -0.00000693
     atom   15 type  1   force =     0.00000000    0.00100706   -0.00000692
     atom   16 type  1   force =     0.00000000   -0.00100706   -0.00000692
     atom   17 type  1   force =     0.00077507    0.00010767   -0.00052542
     atom   18 type  1   force =    -0.00077506   -0.00010767   -0.00052542
     atom   19 type  1   force =     0.00077506   -0.00010767   -0.00052542
     atom   20 type  1   force =    -0.00077507    0.00010767   -0.00052542
     atom   21 type  1   force =     0.00077507    0.00010768   -0.00052543
     atom   22 type  1   force =    -0.00077506   -0.00010767   -0.00052542
     atom   23 type  1   force =     0.00077506   -0.00010767   -0.00052542
     atom   24 type  1   force =    -0.00077507    0.00010768   -0.00052543

     Total force =     0.006726     Total SCF correction =     0.000015


     Computing stress (Cartesian axis) and pressure

          total   stress  (Ry/bohr**3)                   (kbar)     P=       -4.27
  -0.00003851   0.00000000   0.00000000           -5.67        0.00        0.00
   0.00000000  -0.00002440  -0.00000000            0.00       -3.59       -0.00
   0.00000000  -0.00000000  -0.00002424            0.00       -0.00       -3.57

     Energy error            =      1.1E-04 Ry
     Gradient error          =      2.4E-03 Ry/Bohr

     number of scf cycles    =   8
     number of bfgs steps    =   7

     energy             old  =    -276.0234370989 Ry
     energy             new  =    -276.0235431012 Ry

     CASE: energy            _new < energy            _old

     new trust radius        =       0.0048770555 bohr
     new conv_thr            =       0.0000000011 Ry


ATOMIC_POSITIONS (crystal)
O                0.0000000000        0.6653358165        0.0595754953
O                0.0000000000        0.3346641823        0.5595755005
O                0.5000000000        0.1653358205        0.0595754961
O                0.5000000000        0.8346641794        0.5595754978
O                0.5000000000        0.8337074372        0.9356073139
O                0.5000000000        0.1662925641        0.4356073083
O                0.0000000000        0.3337074339        0.9356073183
O                0.0000000000        0.6662925651        0.4356073106
H                0.0000000000        0.6635971833        0.1994596073
H                0.0000000000        0.3364028213        0.6994596104
H                0.5000000000        0.1635971869        0.1994596064
H                0.5000000000        0.8364028176        0.6994596085
H                0.0000000000        0.5397396733        0.0175312105
H                0.0000000000        0.4602603255        0.5175312083
H                0.5000000000        0.0397396769        0.0175312066
H                0.5000000000        0.9602603214        0.5175312046
H                0.6822969724        0.7686828572        0.9829131960
H                0.3177030272        0.2313171430        0.4829131909
H                0.6822969728        0.2313171430        0.4829131909
H                0.3177030276        0.7686828572        0.9829131960
H                0.1822969714        0.2686828535        0.9829132018
H                0.8177030267        0.7313171438        0.4829131926
H                0.1822969733        0.7313171438        0.4829131926
H                0.8177030286        0.2686828535        0.9829132018



     Writing config-only to output data dir ./iceIh/iceIh.save/ :
     XML data file
     NEW-OLD atomic charge density approx. for the potential

     total cpu time spent up to now is      806.3 secs

     per-process dynamical memory:    62.5 Mb

     Self-consistent Calculation

     iteration #  1     ecut=    90.00 Ry     beta= 0.70
     Davidson diagonalization with overlap
     ethr =  1.00E-06,  avg # of iterations =  3.0

     Threshold (ethr) on eigenvalues was too large:
     Diagonalizing with lowered threshold

     Davidson diagonalization with overlap
     ethr =  3.63E-08,  avg # of iterations =  2.1

     total cpu time spent up to now is      825.9 secs

     total energy              =    -276.02358734 Ry
     estimated scf accuracy    <       0.00002466 Ry

     iteration #  2     ecut=    90.00 Ry     beta= 0.70
     Davidson diagonalization with overlap
     ethr =  3.85E-08,  avg # of iterations =  3.0

     total cpu time spent up to now is      836.9 secs

     total energy              =    -276.02359171 Ry
     estimated scf accuracy    <       0.00001276 Ry

     iteration #  3     ecut=    90.00 Ry     beta= 0.70
     Davidson diagonalization with overlap
     ethr =  1.99E-08,  avg # of iterations =  3.0

     total cpu time spent up to now is      846.8 secs

     total energy              =    -276.02359478 Ry
     estimated scf accuracy    <       0.00000026 Ry

     iteration #  4     ecut=    90.00 Ry     beta= 0.70
     Davidson diagonalization with overlap
     ethr =  4.00E-10,  avg # of iterations =  4.3

     total cpu time spent up to now is      859.0 secs

     total energy              =    -276.02359482 Ry
     estimated scf accuracy    <       0.00000024 Ry

     iteration #  5     ecut=    90.00 Ry     beta= 0.70
     Davidson diagonalization with overlap
     ethr =  3.74E-10,  avg # of iterations =  3.1

     total cpu time spent up to now is      869.2 secs

     total energy              =    -276.02359488 Ry
     estimated scf accuracy    <          7.9E-09 Ry

     iteration #  6     ecut=    90.00 Ry     beta= 0.70
     Davidson diagonalization with overlap
     ethr =  1.23E-11,  avg # of iterations =  4.0

     total cpu time spent up to now is      880.6 secs

     total energy              =    -276.02359488 Ry
     estimated scf accuracy    <          9.8E-09 Ry

     iteration #  7     ecut=    90.00 Ry     beta= 0.70
     Davidson diagonalization with overlap
     ethr =  1.23E-11,  avg # of iterations =  2.8

     total cpu time spent up to now is      890.0 secs

     End of self-consistent calculation

     Number of k-points >= 100: set verbosity='high' to print the bands.

     highest occupied level (ev):    -3.2305

!    total energy              =    -276.02359488 Ry
     estimated scf accuracy    <          3.9E-10 Ry

     The total energy is the sum of the following terms:
     one-electron contribution =    -231.18033236 Ry
     hartree contribution      =     136.71044438 Ry
     xc contribution           =     -67.74360633 Ry
     ewald contribution        =    -113.81010058 Ry

     convergence has been achieved in   7 iterations

     Forces acting on atoms (cartesian axes, Ry/au):

     atom    1 type  2   force =     0.00000000    0.00058080   -0.00012642
     atom    2 type  2   force =     0.00000000   -0.00058077   -0.00012645
     atom    3 type  2   force =     0.00000000    0.00058078   -0.00012645
     atom    4 type  2   force =     0.00000000   -0.00058078   -0.00012644
     atom    5 type  2   force =     0.00000000   -0.00080131   -0.00022919
     atom    6 type  2   force =     0.00000000    0.00080131   -0.00022919
     atom    7 type  2   force =     0.00000000   -0.00080131   -0.00022919
     atom    8 type  2   force =     0.00000000    0.00080131   -0.00022919
     atom    9 type  1   force =     0.00000000    0.00031091   -0.00004539
     atom   10 type  1   force =     0.00000000   -0.00031091   -0.00004537
     atom   11 type  1   force =     0.00000000    0.00031090   -0.00004537
     atom   12 type  1   force =     0.00000000   -0.00031091   -0.00004538
     atom   13 type  1   force =     0.00000000    0.00050278   -0.00001904
     atom   14 type  1   force =     0.00000000   -0.00050280   -0.00001903
     atom   15 type  1   force =     0.00000000    0.00050280   -0.00001903
     atom   16 type  1   force =     0.00000000   -0.00050279   -0.00001903
     atom   17 type  1   force =     0.00126748   -0.00042440    0.00021002
     atom   18 type  1   force =    -0.00126748    0.00042440    0.00021002
     atom   19 type  1   force =     0.00126748    0.00042440    0.00021002
     atom   20 type  1   force =    -0.00126748   -0.00042440    0.00021002
     atom   21 type  1   force =     0.00126749   -0.00042439    0.00021001
     atom   22 type  1   force =    -0.00126748    0.00042440    0.00021002
     atom   23 type  1   force =     0.00126748    0.00042440    0.00021002
     atom   24 type  1   force =    -0.00126749   -0.00042439    0.00021001

     Total force =     0.004499     Total SCF correction =     0.000031


     Computing stress (Cartesian axis) and pressure

          total   stress  (Ry/bohr**3)                   (kbar)     P=       -3.54
  -0.00003033   0.00000000   0.00000000           -4.46        0.00        0.00
   0.00000000  -0.00001990   0.00000000            0.00       -2.93        0.00
   0.00000000   0.00000000  -0.00002203            0.00        0.00       -3.24

     Energy error            =      5.2E-05 Ry
     Gradient error          =      1.3E-03 Ry/Bohr

     number of scf cycles    =   9
     number of bfgs steps    =   8

     energy             old  =    -276.0235431012 Ry
     energy             new  =    -276.0235948838 Ry

     CASE: energy            _new < energy            _old

     new trust radius        =       0.0035251778 bohr
     new conv_thr            =       0.0000000010 Ry


ATOMIC_POSITIONS (crystal)
O                0.0000000000        0.6654844230        0.0595422926
O                0.0000000000        0.3345155783        0.5595422939
O                0.5000000000        0.1654844248        0.0595422903
O                0.5000000000        0.8345155748        0.5595422919
O                0.5000000000        0.8335197981        0.9357726329
O                0.5000000000        0.1664802029        0.4357726278
O                0.0000000000        0.3335197945        0.9357726375
O                0.0000000000        0.6664802034        0.4357726296
H                0.0000000000        0.6636369044        0.1994445941
H                0.0000000000        0.3363630997        0.6994445996
H                0.5000000000        0.1636369069        0.1994445953
H                0.5000000000        0.8363630968        0.6994445970
H                0.0000000000        0.5399119866        0.0175048716
H                0.0000000000        0.4600880102        0.5175048706
H                0.5000000000        0.0399119918        0.0175048693
H                0.5000000000        0.9600880070        0.5175048673
H                0.6825231707        0.7685740130        0.9828678137
H                0.3174768296        0.2314259872        0.4828678092
H                0.6825231704        0.2314259872        0.4828678092
H                0.3174768293        0.7685740130        0.9828678137
H                0.1825231706        0.2685740101        0.9828678187
H                0.8174768289        0.7314259880        0.4828678108
H                0.1825231711        0.7314259880        0.4828678108
H                0.8174768294        0.2685740101        0.9828678187



     Writing config-only to output data dir ./iceIh/iceIh.save/ :
     XML data file
     NEW-OLD atomic charge density approx. for the potential

     total cpu time spent up to now is      899.4 secs

     per-process dynamical memory:    62.8 Mb

     Self-consistent Calculation

     iteration #  1     ecut=    90.00 Ry     beta= 0.70
     Davidson diagonalization with overlap
     ethr =  1.00E-06,  avg # of iterations =  2.6

     Threshold (ethr) on eigenvalues was too large:
     Diagonalizing with lowered threshold

     Davidson diagonalization with overlap
     ethr =  1.62E-08,  avg # of iterations =  3.0

     total cpu time spent up to now is      920.4 secs

     total energy              =    -276.02361934 Ry
     estimated scf accuracy    <       0.00001306 Ry

     iteration #  2     ecut=    90.00 Ry     beta= 0.70
     Davidson diagonalization with overlap
     ethr =  2.04E-08,  avg # of iterations =  3.0

     total cpu time spent up to now is      931.5 secs

     total energy              =    -276.02362162 Ry
     estimated scf accuracy    <       0.00000800 Ry

     iteration #  3     ecut=    90.00 Ry     beta= 0.70
     Davidson diagonalization with overlap
     ethr =  1.25E-08,  avg # of iterations =  2.7

     total cpu time spent up to now is      941.0 secs

     total energy              =    -276.02362343 Ry
     estimated scf accuracy    <       0.00000010 Ry

     iteration #  4     ecut=    90.00 Ry     beta= 0.70
     Davidson diagonalization with overlap
     ethr =  1.59E-10,  avg # of iterations =  5.8

     total cpu time spent up to now is      957.3 secs

     total energy              =    -276.02362340 Ry
     estimated scf accuracy    <       0.00000035 Ry

     iteration #  5     ecut=    90.00 Ry     beta= 0.70
     Davidson diagonalization with overlap
     ethr =  1.59E-10,  avg # of iterations =  4.5

     total cpu time spent up to now is      971.3 secs

     total energy              =    -276.02362354 Ry
     estimated scf accuracy    <       0.00000011 Ry

     iteration #  6     ecut=    90.00 Ry     beta= 0.70
     Davidson diagonalization with overlap
     ethr =  1.59E-10,  avg # of iterations =  1.5

     total cpu time spent up to now is      978.7 secs

     total energy              =    -276.02362354 Ry
     estimated scf accuracy    <       0.00000002 Ry

     iteration #  7     ecut=    90.00 Ry     beta= 0.70
     Davidson diagonalization with overlap
     ethr =  3.74E-11,  avg # of iterations =  2.5

     total cpu time spent up to now is      988.1 secs

     total energy              =    -276.02362354 Ry
     estimated scf accuracy    <          1.2E-09 Ry

     iteration #  8     ecut=    90.00 Ry     beta= 0.70
     Davidson diagonalization with overlap
     ethr =  1.84E-12,  avg # of iterations =  2.1

     total cpu time spent up to now is      997.6 secs

     End of self-consistent calculation

     Number of k-points >= 100: set verbosity='high' to print the bands.

     highest occupied level (ev):    -3.2324

[...]
     atom   21 type  1   force =    -0.00007874    0.00004271   -0.00002298
     atom   22 type  1   force =     0.00007822   -0.00004242   -0.00002269
     atom   23 type  1   force =    -0.00007822   -0.00004242   -0.00002269
     atom   24 type  1   force =     0.00007874    0.00004271   -0.00002298

     Total force =     0.000761     Total SCF correction =     0.000029


     Computing stress (Cartesian axis) and pressure

          total   stress  (Ry/bohr**3)                   (kbar)     P=       -4.20
  -0.00003184   0.00000000   0.00000000           -4.68        0.00        0.00
   0.00000000  -0.00002678   0.00000000            0.00       -3.94        0.00
   0.00000000   0.00000000  -0.00002713            0.00        0.00       -3.99

     Energy error            =      6.6E-07 Ry
     Gradient error          =      2.0E-04 Ry/Bohr

     number of scf cycles    =  39
     number of bfgs steps    =  38

     energy             old  =    -276.0237173571 Ry
     energy             new  =    -276.0237180170 Ry

     CASE: energy            _new < energy            _old

     new trust radius        =       0.0014270023 bohr
     new conv_thr            =       0.0000000010 Ry


ATOMIC_POSITIONS (crystal)
O                0.0000000000        0.6630721914        0.0595829591
O                0.0000000000        0.3369284661        0.5595820510
O                0.5000000000        0.1630718975        0.0595825572
O                0.5000000000        0.8369281783        0.5595824398
O                0.5000000000        0.8299231511        0.9352908863
O                0.5000000000        0.1700768287        0.4352908725
O                0.0000000000        0.3299230690        0.9352909039
O                0.0000000000        0.6700767591        0.4352908585
H                0.0000000000        0.6631306336        0.1995523385
H                0.0000000000        0.3368693199        0.6995530835
H                0.5000000000        0.1631306741        0.1995526007
H                0.5000000000        0.8368693596        0.6995528221
H                0.0000000000        0.5372599456        0.0187252543
H                0.0000000000        0.4627394429        0.5187255387
H                0.5000000000        0.0372602276        0.0187253685
H                0.5000000000        0.9627397184        0.5187254210
H                0.6827377007        0.7649889889        0.9824242501
H                0.3172622690        0.2350110212        0.4824242798
H                0.6827377310        0.2350110212        0.4824242798
H                0.3172622993        0.7649889889        0.9824242501
H                0.1827376374        0.2649890065        0.9824242051
H                0.8172622052        0.7350110520        0.4824243202
H                0.1827377948        0.7350110520        0.4824243202
H                0.8172623626        0.2649890065        0.9824242051



     Writing config-only to output data dir ./iceIh/iceIh.save/ :
     XML data file
     NEW-OLD atomic charge density approx. for the potential

     total cpu time spent up to now is     2970.4 secs

     per-process dynamical memory:    62.8 Mb

     Self-consistent Calculation

     iteration #  1     ecut=    90.00 Ry     beta= 0.70
     Davidson diagonalization with overlap
     ethr =  1.00E-06,  avg # of iterations =  2.0

     Threshold (ethr) on eigenvalues was too large:
     Diagonalizing with lowered threshold

     Davidson diagonalization with overlap
     ethr =  1.24E-09,  avg # of iterations =  4.7

     total cpu time spent up to now is     2993.5 secs

     total energy              =    -276.02371863 Ry
     estimated scf accuracy    <       0.00000137 Ry

     iteration #  2     ecut=    90.00 Ry     beta= 0.70
     Davidson diagonalization with overlap
     ethr =  2.14E-09,  avg # of iterations =  2.0

     total cpu time spent up to now is     3002.3 secs

     total energy              =    -276.02371882 Ry
     estimated scf accuracy    <       0.00000010 Ry

     iteration #  3     ecut=    90.00 Ry     beta= 0.70
     Davidson diagonalization with overlap
     ethr =  1.63E-10,  avg # of iterations =  3.0

     total cpu time spent up to now is     3013.2 secs

     total energy              =    -276.02371885 Ry
     estimated scf accuracy    <       0.00000005 Ry

     iteration #  4     ecut=    90.00 Ry     beta= 0.70
     Davidson diagonalization with overlap
     ethr =  7.63E-11,  avg # of iterations =  2.7

     total cpu time spent up to now is     3022.3 secs

     total energy              =    -276.02371886 Ry
     estimated scf accuracy    <          1.2E-09 Ry

     iteration #  5     ecut=    90.00 Ry     beta= 0.70
     Davidson diagonalization with overlap
     ethr =  1.85E-12,  avg # of iterations =  5.0

     total cpu time spent up to now is     3036.3 secs

     total energy              =    -276.02371886 Ry
     estimated scf accuracy    <          2.0E-09 Ry

     iteration #  6     ecut=    90.00 Ry     beta= 0.70
     Davidson diagonalization with overlap
     ethr =  1.85E-12,  avg # of iterations =  2.9

     total cpu time spent up to now is     3046.6 secs

     End of self-consistent calculation

     Number of k-points >= 100: set verbosity='high' to print the bands.

     highest occupied level (ev):    -3.2387

!    total energy              =    -276.02371886 Ry
     estimated scf accuracy    <          5.5E-11 Ry

     The total energy is the sum of the following terms:
     one-electron contribution =    -231.08282509 Ry
     hartree contribution      =     136.66350596 Ry
     xc contribution           =     -67.73856319 Ry
     ewald contribution        =    -113.86583654 Ry

     convergence has been achieved in   6 iterations

     Forces acting on atoms (cartesian axes, Ry/au):

     atom    1 type  2   force =     0.00000000   -0.00008976   -0.00001032
     atom    2 type  2   force =     0.00000000    0.00007261    0.00001294
     atom    3 type  2   force =     0.00000000   -0.00008187   -0.00000086
     atom    4 type  2   force =     0.00000000    0.00008034    0.00000369
     atom    5 type  2   force =     0.00000000   -0.00005140    0.00016551
     atom    6 type  2   force =     0.00000000    0.00005196    0.00016629
     atom    7 type  2   force =     0.00000000   -0.00004962    0.00016441
     atom    8 type  2   force =     0.00000000    0.00005369    0.00016738
     atom    9 type  1   force =     0.00000000    0.00012796    0.00004324
     atom   10 type  1   force =     0.00000000   -0.00012767    0.00002688
     atom   11 type  1   force =     0.00000000    0.00012780    0.00003675
     atom   12 type  1   force =     0.00000000   -0.00012783    0.00003324
     atom   13 type  1   force =     0.00000000   -0.00005893   -0.00013371
     atom   14 type  1   force =     0.00000000    0.00007434   -0.00013880
     atom   15 type  1   force =     0.00000000   -0.00006596   -0.00013597
     atom   16 type  1   force =     0.00000000    0.00006746   -0.00013660
     atom   17 type  1   force =    -0.00008523    0.00004232   -0.00003272
     atom   18 type  1   force =     0.00008568   -0.00004232   -0.00003331
     atom   19 type  1   force =    -0.00008568   -0.00004232   -0.00003331
     atom   20 type  1   force =     0.00008523    0.00004232   -0.00003272
     atom   21 type  1   force =    -0.00008424    0.00004153   -0.00003240
     atom   22 type  1   force =     0.00008666   -0.00004309   -0.00003362
     atom   23 type  1   force =    -0.00008666   -0.00004309   -0.00003362
     atom   24 type  1   force =     0.00008424    0.00004153   -0.00003240

     Total force =     0.000626     Total SCF correction =     0.000012


     Computing stress (Cartesian axis) and pressure

          total   stress  (Ry/bohr**3)                   (kbar)     P=       -4.22
  -0.00003179   0.00000000   0.00000000           -4.68        0.00        0.00
   0.00000000  -0.00002686  -0.00000001            0.00       -3.95       -0.00
   0.00000000  -0.00000001  -0.00002750            0.00       -0.00       -4.04

     Energy error            =      8.4E-07 Ry
     Gradient error          =      1.7E-04 Ry/Bohr

     number of scf cycles    =  40
     number of bfgs steps    =  39

     energy             old  =    -276.0237180170 Ry
     energy             new  =    -276.0237188560 Ry

     CASE: energy            _new < energy            _old

     new trust radius        =       0.0017755838 bohr
     new conv_thr            =       0.0000000010 Ry


ATOMIC_POSITIONS (crystal)
O                0.0000000000        0.6629755219        0.0595304282
O                0.0000000000        0.3370228341        0.5595328282
O                0.5000000000        0.1629762858        0.0595313703
O                0.5000000000        0.8370235818        0.5595319022
O                0.5000000000        0.8298860533        0.9353703418
O                0.5000000000        0.1701139957        0.4353704453
O                0.0000000000        0.3298862109        0.9353702043
O                0.0000000000        0.6701141571        0.4353705867
H                0.0000000000        0.6631329512        0.1994922712
H                0.0000000000        0.3368670527        0.6994906802
H                0.5000000000        0.1631329642        0.1994916094
H                0.5000000000        0.8368670684        0.6994913266
H                0.0000000000        0.5371432900        0.0186930242
H                0.0000000000        0.4628581688        0.5186925737
H                0.5000000000        0.0371426377        0.0186928088
H                0.5000000000        0.9628575287        0.5186927785
H                0.6827369510        0.7649270677        0.9824568911
H                0.3172631238        0.2350729365        0.4824568322
H                0.6827368762        0.2350729365        0.4824568322
H                0.3172630490        0.7649270677        0.9824568911
H                0.1827371173        0.2649269820        0.9824568936
H                0.8172632851        0.7350728626        0.4824568264
H                0.1827367149        0.7350728626        0.4824568264
H                0.8172628827        0.2649269820        0.9824568936



     Writing config-only to output data dir ./iceIh/iceIh.save/ :
     XML data file
     NEW-OLD atomic charge density approx. for the potential

     total cpu time spent up to now is     3055.9 secs

     per-process dynamical memory:    62.8 Mb

     Self-consistent Calculation

     iteration #  1     ecut=    90.00 Ry     beta= 0.70
     Davidson diagonalization with overlap
     ethr =  1.00E-06,  avg # of iterations =  2.0

     Threshold (ethr) on eigenvalues was too large:
     Diagonalizing with lowered threshold

     Davidson diagonalization with overlap
     ethr =  1.67E-09,  avg # of iterations =  4.1

     total cpu time spent up to now is     3078.8 secs

     total energy              =    -276.02371928 Ry
     estimated scf accuracy    <       0.00000206 Ry

     iteration #  2     ecut=    90.00 Ry     beta= 0.70
     Davidson diagonalization with overlap
     ethr =  3.22E-09,  avg # of iterations =  2.0

     total cpu time spent up to now is     3087.6 secs

     total energy              =    -276.02371959 Ry
     estimated scf accuracy    <       0.00000011 Ry

     iteration #  3     ecut=    90.00 Ry     beta= 0.70
     Davidson diagonalization with overlap
     ethr =  1.79E-10,  avg # of iterations =  3.0

     total cpu time spent up to now is     3098.1 secs

     total energy              =    -276.02371962 Ry
     estimated scf accuracy    <       0.00000004 Ry

     iteration #  4     ecut=    90.00 Ry     beta= 0.70
     Davidson diagonalization with overlap
     ethr =  6.62E-11,  avg # of iterations =  2.2

     total cpu time spent up to now is     3107.1 secs

     total energy              =    -276.02371963 Ry
     estimated scf accuracy    <          1.6E-09 Ry

     iteration #  5     ecut=    90.00 Ry     beta= 0.70
     Davidson diagonalization with overlap
     ethr =  2.46E-12,  avg # of iterations =  4.7

     total cpu time spent up to now is     3119.9 secs

     total energy              =    -276.02371963 Ry
     estimated scf accuracy    <          2.1E-09 Ry

     iteration #  6     ecut=    90.00 Ry     beta= 0.70
     Davidson diagonalization with overlap
     ethr =  2.46E-12,  avg # of iterations =  3.0

     total cpu time spent up to now is     3130.4 secs

     End of self-consistent calculation

     Number of k-points >= 100: set verbosity='high' to print the bands.

     highest occupied level (ev):    -3.2386

!    total energy              =    -276.02371963 Ry
     estimated scf accuracy    <          1.5E-11 Ry

     The total energy is the sum of the following terms:
     one-electron contribution =    -231.08200930 Ry
     hartree contribution      =     136.66313527 Ry
     xc contribution           =     -67.73849736 Ry
     ewald contribution        =    -113.86634824 Ry

     convergence has been achieved in   6 iterations

     Forces acting on atoms (cartesian axes, Ry/au):

     atom    1 type  2   force =     0.00000000    0.00000515    0.00003422
     atom    2 type  2   force =     0.00000000    0.00003661   -0.00002276
     atom    3 type  2   force =     0.00000000   -0.00001395    0.00001127
     atom    4 type  2   force =     0.00000000    0.00001790   -0.00000025
     atom    5 type  2   force =     0.00000000   -0.00004595    0.00005278
     atom    6 type  2   force =     0.00000000    0.00004460    0.00005039
     atom    7 type  2   force =     0.00000000   -0.00005025    0.00005540
     atom    8 type  2   force =     0.00000000    0.00004036    0.00004773
     atom    9 type  1   force =     0.00000000    0.00000461    0.00000678
     atom   10 type  1   force =     0.00000000   -0.00000536    0.00004637
     atom   11 type  1   force =     0.00000000    0.00000502    0.00002249
     atom   12 type  1   force =     0.00000000   -0.00000496    0.00003095
     atom   13 type  1   force =     0.00000000   -0.00002358   -0.00003127
     atom   14 type  1   force =     0.00000000   -0.00001385   -0.00001893
     atom   15 type  1   force =     0.00000000   -0.00000666   -0.00002590
     atom   16 type  1   force =     0.00000000    0.00000275   -0.00002420
     atom   17 type  1   force =    -0.00005588    0.00002511   -0.00003014
     atom   18 type  1   force =     0.00005472   -0.00002513   -0.00002862
     atom   19 type  1   force =    -0.00005472   -0.00002513   -0.00002862
     atom   20 type  1   force =     0.00005588    0.00002511   -0.00003014
     atom   21 type  1   force =    -0.00005830    0.00002703   -0.00003088
     atom   22 type  1   force =     0.00005234   -0.00002324   -0.00002789
     atom   23 type  1   force =    -0.00005234   -0.00002324   -0.00002789
     atom   24 type  1   force =     0.00005830    0.00002703   -0.00003088

     Total force =     0.000257     Total SCF correction =     0.000007


     Computing stress (Cartesian axis) and pressure

          total   stress  (Ry/bohr**3)                   (kbar)     P=       -4.24
  -0.00003145   0.00000000   0.00000000           -4.63        0.00        0.00
   0.00000000  -0.00002687   0.00000002            0.00       -3.95        0.00
   0.00000000   0.00000002  -0.00002821            0.00        0.00       -4.15

     Energy error            =      7.7E-07 Ry
     Gradient error          =      5.8E-05 Ry/Bohr

     bfgs converged in  41 scf cycles and  40 bfgs steps
     (criteria: energy <  1.0E-04 Ry, force <  1.0E-04 Ry/Bohr)

     End of BFGS Geometry Optimization

     Final energy             =    -276.0237196284 Ry

     File ./iceIh/iceIh.bfgs deleted, as requested
Begin final coordinates

ATOMIC_POSITIONS (crystal)
O                0.0000000000        0.6629755219        0.0595304282
O                0.0000000000        0.3370228341        0.5595328282
O                0.5000000000        0.1629762858        0.0595313703
O                0.5000000000        0.8370235818        0.5595319022
O                0.5000000000        0.8298860533        0.9353703418
O                0.5000000000        0.1701139957        0.4353704453
O                0.0000000000        0.3298862109        0.9353702043
O                0.0000000000        0.6701141571        0.4353705867
H                0.0000000000        0.6631329512        0.1994922712
H                0.0000000000        0.3368670527        0.6994906802
H                0.5000000000        0.1631329642        0.1994916094
H                0.5000000000        0.8368670684        0.6994913266
H                0.0000000000        0.5371432900        0.0186930242
H                0.0000000000        0.4628581688        0.5186925737
H                0.5000000000        0.0371426377        0.0186928088
H                0.5000000000        0.9628575287        0.5186927785
H                0.6827369510        0.7649270677        0.9824568911
H                0.3172631238        0.2350729365        0.4824568322
H                0.6827368762        0.2350729365        0.4824568322
H                0.3172630490        0.7649270677        0.9824568911
H                0.1827371173        0.2649269820        0.9824568936
H                0.8172632851        0.7350728626        0.4824568264
H                0.1827367149        0.7350728626        0.4824568264
H                0.8172628827        0.2649269820        0.9824568936
End final coordinates



     Writing all to output data dir ./iceIh/iceIh.save/ :
     XML data file, charge density, pseudopotentials, collected wavefunctions

     init_run     :      4.53s CPU      4.64s WALL (       1 calls)
     electrons    :   2709.75s CPU   2756.26s WALL (      41 calls)
     update_pot   :      0.54s CPU      0.57s WALL (      40 calls)
     forces       :     22.91s CPU     22.98s WALL (      41 calls)
     stress       :    344.25s CPU    344.45s WALL (      41 calls)

     Called by init_run:
     wfcinit      :      4.09s CPU      4.16s WALL (       1 calls)
     potinit      :      0.03s CPU      0.04s WALL (       1 calls)
     hinit0       :      0.33s CPU      0.34s WALL (       1 calls)

     Called by electrons:
     c_bands      :   2411.65s CPU   2451.26s WALL (     264 calls)
     sum_band     :    293.92s CPU    296.89s WALL (     264 calls)
     v_of_rho     :      2.93s CPU      2.95s WALL (     272 calls)
     newd         :      0.59s CPU      0.60s WALL (     272 calls)
     mix_rho      :      0.37s CPU      0.37s WALL (     264 calls)

     Called by c_bands:
     init_us_2    :     36.11s CPU     37.39s WALL (   70265 calls)
     cegterg      :   2321.85s CPU   2341.34s WALL (   30360 calls)

     Called by *egterg:
     cdiaghg      :    193.08s CPU    193.84s WALL (  108644 calls)
     h_psi        :   1761.19s CPU   1778.51s WALL (  117154 calls)
     s_psi        :     68.23s CPU     68.64s WALL (  117154 calls)
     g_psi        :      6.24s CPU      6.27s WALL (   86679 calls)

     Called by h_psi:
     h_psi:calbec :    111.97s CPU    112.94s WALL (  117154 calls)
     vloc_psi     :   1564.54s CPU   1580.05s WALL (  117154 calls)
     add_vuspsi   :     72.54s CPU     73.12s WALL (  117154 calls)

     General routines
     calbec       :    159.61s CPU    161.01s WALL (  171089 calls)
     fft          :      1.94s CPU      1.96s WALL (    3393 calls)
     ffts         :      0.13s CPU      0.13s WALL (     264 calls)
     fftw         :   1642.66s CPU   1658.40s WALL ( 6969596 calls)

     Parallel routines

     PWSCF        :  51m28.58s CPU  52m31.56s WALL


   This run was terminated on:   6:34:18   1Apr2026            

=------------------------------------------------------------------------------=
   JOB DONE.
=------------------------------------------------------------------------------=
