
     Program PWSCF v.7.3.1 starts on 24Mar2026 at 20: 9: 8 

     This program is part of the open-source Quantum ESPRESSO suite
     for quantum simulation of materials; please cite
         "P. Giannozzi et al., J. Phys.:Condens. Matter 21 395502 (2009);
         "P. Giannozzi et al., J. Phys.:Condens. Matter 29 465901 (2017);
         "P. Giannozzi et al., J. Chem. Phys. 152 154105 (2020);
          URL http://www.quantum-espresso.org", 
     in publications or presentations arising from this work. More details at
     http://www.quantum-espresso.org/quote

     Parallel version (MPI), running on   128 processors

     MPI processes distributed on     1 nodes
     237483 MiB available memory on the printing compute node when the environment starts

     Waiting for input...
     Reading input from standard input

     Current dimensions of program PWSCF are:
     Max number of different atomic species (ntypx) = 10
     Max number of k-points (npk) =  40000
     Max angular momentum in pseudopotentials (lmaxx) =  4
     Found identity + ( -0.5000  0.5000 -0.0000) symmetry
     This is a supercell, fractional translations are disabled

     K-points division:     npool     =       4
     R & G space division:  proc/nbgrp/npool/nimage =      32
     Subspace diagonalization in iterative solution of the eigenvalue problem:
     a serial algorithm will be used


     Parallelization info
     --------------------
     sticks:   dense  smooth     PW     G-vecs:    dense   smooth      PW
     Min         108     108     29                 5958     5958     863
     Max         109     109     30                 5965     5965     870
     Sum        3477    3477    957               190791   190791   27751

     Using Slab Decomposition



     bravais-lattice index     =            8
     lattice parameter (alat)  =       8.3714  a.u.
     unit-cell volume          =    1654.0780 (a.u.)^3
     number of atoms/cell      =           24
     number of atomic types    =            2
     number of electrons       =        64.00
     number of Kohn-Sham states=           32
     kinetic-energy cutoff     =      90.0000  Ry
     charge density cutoff     =     360.0000  Ry
     scf convergence threshold =      1.0E-07
     mixing beta               =       0.7000
     number of iterations used =            8  plain     mixing
     Exchange-correlation=  SLA  PW   PBE  PBE
                           (   1   4   3   4   0   0   0)

     celldm(1)=   8.371426  celldm(2)=   1.732119  celldm(3)=   1.627721
     celldm(4)=   0.000000  celldm(5)=   0.000000  celldm(6)=   0.000000

     crystal axes: (cart. coord. in units of alat)
               a(1) = (   1.000000   0.000000   0.000000 )  
               a(2) = (   0.000000   1.732119   0.000000 )  
               a(3) = (   0.000000   0.000000   1.627721 )  

     reciprocal axes: (cart. coord. in units 2 pi/alat)
               b(1) = (  1.000000  0.000000  0.000000 )  
               b(2) = (  0.000000  0.577328  0.000000 )  
               b(3) = (  0.000000  0.000000  0.614356 )  


     PseudoPot. # 1 for H  read from file:
     ./H.pbe-van_ak.UPF
     MD5 check sum: 077eb6d537518a38cb46c6de387227b7
     Pseudo is Ultrasoft, Zval =  1.0
     Generated by new atomic code, or converted to UPF format
     Using radial grid of  615 points,  1 beta functions with: 
                l(1) =   0
     Q(r) pseudized with  8 coefficients,  rinner =    0.800

     PseudoPot. # 2 for O  read from file:
     ./O.pbe-van_ak.UPF
     MD5 check sum: 78c19812648e8988a0fe644b0f25305e
     Pseudo is Ultrasoft, Zval =  6.0
     Generated by new atomic code, or converted to UPF format
     Using radial grid of  737 points,  4 beta functions with: 
                l(1) =   0
                l(2) =   0
                l(3) =   1
                l(4) =   1
     Q(r) pseudized with  8 coefficients,  rinner =    0.800   0.800   0.800


     atomic species   valence    mass     pseudopotential
     H                 1.00     1.00800     H ( 1.00)
     O                 6.00    16.00000     O ( 1.00)

      2 Sym. Ops. (no inversion) found



   Cartesian axes

     site n.     atom                  positions (alat units)
         1        O      tau(   1) = (   0.0000000   1.1484866   0.0984416  )
         2        O      tau(   2) = (   0.0000000   0.5836324   0.9123021  )
         3        O      tau(   3) = (   0.5000000   0.2824271   0.0984415  )
         4        O      tau(   4) = (   0.5000000   1.4496920   0.9123021  )
         5        O      tau(   5) = (   0.5000000   1.4402433   1.5187349  )
         6        O      tau(   6) = (   0.5000000   0.2918758   0.7048744  )
         7        O      tau(   7) = (   0.0000000   0.5741838   1.5187348  )
         8        O      tau(   8) = (   0.0000000   1.1579353   0.7048743  )
         9        H      tau(   9) = (   0.0000000   1.1487418   0.3216685  )
        10        H      tau(  10) = (   0.0000000   0.5833772   1.1355290  )
        11        H      tau(  11) = (   0.5000000   0.2826823   0.3216685  )
        12        H      tau(  12) = (   0.5000000   1.4494367   1.1355290  )
        13        H      tau(  13) = (   0.0000000   0.9333594   0.0315143  )
        14        H      tau(  14) = (   0.0000000   0.7987597   0.8453748  )
        15        H      tau(  15) = (   0.5000000   0.0672998   0.0315143  )
        16        H      tau(  16) = (   0.5000000   1.6648192   0.8453748  )
        17        H      tau(  17) = (   0.6820699   1.3365463   1.6012691  )
        18        H      tau(  18) = (   0.3179301   0.3955728   0.7874086  )
        19        H      tau(  19) = (   0.6820699   0.3955728   0.7874086  )
        20        H      tau(  20) = (   0.3179301   1.3365463   1.6012691  )
        21        H      tau(  21) = (   0.1820699   0.4704867   1.6012691  )
        22        H      tau(  22) = (   0.8179301   1.2616323   0.7874086  )
        23        H      tau(  23) = (   0.1820699   1.2616323   0.7874086  )
        24        H      tau(  24) = (   0.8179301   0.4704867   1.6012691  )

     number of k points=   460

     Number of k-points >= 100: set verbosity='high' to print them.

     Dense  grid:   190791 G-vectors     FFT dimensions: (  54,  90,  90)

     Estimated max dynamical RAM per process >      50.05 MB

     Estimated total dynamical RAM >       6.12 GB

     Initial potential from superposition of free atoms

     starting charge      63.9998, renormalised to      64.0000
     Starting wfcs are   48 randomized atomic wfcs

     total cpu time spent up to now is        4.9 secs

     per-process dynamical memory:    57.5 Mb

     Self-consistent Calculation

     iteration #  1     ecut=    90.00 Ry     beta= 0.70
     Davidson diagonalization with overlap
     ethr =  1.00E-02,  avg # of iterations =  2.0

     total cpu time spent up to now is       14.0 secs

     total energy              =    -274.93309190 Ry
     estimated scf accuracy    <       2.63843567 Ry

     iteration #  2     ecut=    90.00 Ry     beta= 0.70
     Davidson diagonalization with overlap
     ethr =  4.12E-03,  avg # of iterations =  3.0

     total cpu time spent up to now is       25.8 secs

     total energy              =    -275.77449925 Ry
     estimated scf accuracy    <       1.50368702 Ry

     iteration #  3     ecut=    90.00 Ry     beta= 0.70
     Davidson diagonalization with overlap
     ethr =  2.35E-03,  avg # of iterations =  2.0

     total cpu time spent up to now is       34.9 secs

     total energy              =    -275.96891279 Ry
     estimated scf accuracy    <       0.06004965 Ry

     iteration #  4     ecut=    90.00 Ry     beta= 0.70
     Davidson diagonalization with overlap
     ethr =  9.38E-05,  avg # of iterations =  4.0

     total cpu time spent up to now is       48.3 secs

     total energy              =    -276.01492864 Ry
     estimated scf accuracy    <       0.07200103 Ry

     iteration #  5     ecut=    90.00 Ry     beta= 0.70
     Davidson diagonalization with overlap
     ethr =  9.38E-05,  avg # of iterations =  2.0

     total cpu time spent up to now is       56.3 secs

     total energy              =    -276.01803808 Ry
     estimated scf accuracy    <       0.01122920 Ry

     iteration #  6     ecut=    90.00 Ry     beta= 0.70
     Davidson diagonalization with overlap
     ethr =  1.75E-05,  avg # of iterations =  2.0

     total cpu time spent up to now is       64.5 secs

     total energy              =    -276.01718306 Ry
     estimated scf accuracy    <       0.00417345 Ry

     iteration #  7     ecut=    90.00 Ry     beta= 0.70
     Davidson diagonalization with overlap
     ethr =  6.52E-06,  avg # of iterations =  3.0

     total cpu time spent up to now is       75.3 secs

     total energy              =    -276.01870919 Ry
     estimated scf accuracy    <       0.00004868 Ry

     iteration #  8     ecut=    90.00 Ry     beta= 0.70
     Davidson diagonalization with overlap
     ethr =  7.61E-08,  avg # of iterations =  4.7

     total cpu time spent up to now is       90.4 secs

     total energy              =    -276.01867012 Ry
     estimated scf accuracy    <       0.00081632 Ry

     iteration #  9     ecut=    90.00 Ry     beta= 0.70
     Davidson diagonalization with overlap
     ethr =  7.61E-08,  avg # of iterations =  3.0

     total cpu time spent up to now is      101.8 secs

     total energy              =    -276.01860105 Ry
     estimated scf accuracy    <       0.00028997 Ry

     iteration # 10     ecut=    90.00 Ry     beta= 0.70
     Davidson diagonalization with overlap
     ethr =  7.61E-08,  avg # of iterations =  3.0

     total cpu time spent up to now is      113.1 secs

     total energy              =    -276.01861105 Ry
     estimated scf accuracy    <       0.00003929 Ry

     iteration # 11     ecut=    90.00 Ry     beta= 0.70
     Davidson diagonalization with overlap
     ethr =  6.14E-08,  avg # of iterations =  2.0

     total cpu time spent up to now is      122.5 secs

     total energy              =    -276.01861908 Ry
     estimated scf accuracy    <       0.00000067 Ry

     iteration # 12     ecut=    90.00 Ry     beta= 0.70
     Davidson diagonalization with overlap
     ethr =  1.04E-09,  avg # of iterations =  5.0

     total cpu time spent up to now is      137.1 secs

     total energy              =    -276.01862006 Ry
     estimated scf accuracy    <       0.00000090 Ry

     iteration # 13     ecut=    90.00 Ry     beta= 0.70
     Davidson diagonalization with overlap
     ethr =  1.04E-09,  avg # of iterations =  1.0

     total cpu time spent up to now is      143.8 secs

     total energy              =    -276.01861975 Ry
     estimated scf accuracy    <       0.00000053 Ry

     iteration # 14     ecut=    90.00 Ry     beta= 0.70
     Davidson diagonalization with overlap
     ethr =  8.31E-10,  avg # of iterations =  3.0

     total cpu time spent up to now is      154.5 secs

     End of self-consistent calculation

     Number of k-points >= 100: set verbosity='high' to print the bands.

     highest occupied level (ev):    -3.2660

!    total energy              =    -276.01861991 Ry
     estimated scf accuracy    <       0.00000005 Ry

     The total energy is the sum of the following terms:
     one-electron contribution =    -233.08746058 Ry
     hartree contribution      =     137.53732755 Ry
     xc contribution           =     -67.85574254 Ry
     ewald contribution        =    -112.61274435 Ry

     convergence has been achieved in  14 iterations

     Forces acting on atoms (cartesian axes, Ry/au):

     atom    1 type  2   force =     0.00000000    0.01463299   -0.02144158
     atom    2 type  2   force =     0.00000000   -0.01463321   -0.02144179
     atom    3 type  2   force =     0.00000000    0.01463230   -0.02144132
     atom    4 type  2   force =     0.00000000   -0.01463284   -0.02144168
     atom    5 type  2   force =     0.00000000    0.01590810   -0.00273860
     atom    6 type  2   force =     0.00000000   -0.01590803   -0.00273878
     atom    7 type  2   force =     0.00000000    0.01590804   -0.00273876
     atom    8 type  2   force =     0.00000000   -0.01590759   -0.00273855
     atom    9 type  1   force =     0.00000000   -0.00030375    0.02421497
     atom   10 type  1   force =     0.00000000    0.00030374    0.02421492
     atom   11 type  1   force =     0.00000000   -0.00030381    0.02421491
     atom   12 type  1   force =     0.00000000    0.00030378    0.02421492
     atom   13 type  1   force =     0.00000000   -0.00912778   -0.00525651
     atom   14 type  1   force =     0.00000000    0.00912797   -0.00525660
     atom   15 type  1   force =     0.00000000   -0.00912775   -0.00525647
     atom   16 type  1   force =     0.00000000    0.00912786   -0.00525654
     atom   17 type  1   force =     0.00569575   -0.01065558    0.00261094
     atom   18 type  1   force =    -0.00569580    0.01065559    0.00261092
     atom   19 type  1   force =     0.00569580    0.01065559    0.00261092
     atom   20 type  1   force =    -0.00569575   -0.01065558    0.00261094
     atom   21 type  1   force =     0.00569579   -0.01065562    0.00261093
     atom   22 type  1   force =    -0.00569586    0.01065561    0.00261092
     atom   23 type  1   force =     0.00569586    0.01065561    0.00261092
     atom   24 type  1   force =    -0.00569579   -0.01065562    0.00261093

     Total force =     0.088032     Total SCF correction =     0.000193


     Computing stress (Cartesian axis) and pressure

          total   stress  (Ry/bohr**3)                   (kbar)     P=        9.71
   0.00000531   0.00000000   0.00000000            0.78        0.00        0.00
   0.00000000   0.00005573   0.00000000            0.00        8.20        0.00
   0.00000000   0.00000000   0.00013692            0.00        0.00       20.14


     Writing all to output data dir ./iceIh/iceIh.save/ :
     XML data file, charge density, pseudopotentials, collected wavefunctions

     init_run     :      4.52s CPU      4.62s WALL (       1 calls)
     electrons    :    147.71s CPU    149.68s WALL (       1 calls)
     forces       :      0.56s CPU      0.58s WALL (       1 calls)
     stress       :      8.49s CPU      8.51s WALL (       1 calls)

     Called by init_run:
     wfcinit      :      4.07s CPU      4.14s WALL (       1 calls)
     potinit      :      0.03s CPU      0.04s WALL (       1 calls)
     hinit0       :      0.34s CPU      0.34s WALL (       1 calls)

     Called by electrons:
     c_bands      :    132.00s CPU    133.72s WALL (      14 calls)
     sum_band     :     15.46s CPU     15.62s WALL (      14 calls)
     v_of_rho     :      0.16s CPU      0.18s WALL (      15 calls)
     newd         :      0.03s CPU      0.03s WALL (      15 calls)
     mix_rho      :      0.03s CPU      0.04s WALL (      14 calls)

     Called by c_bands:
     init_us_2    :      1.88s CPU      1.94s WALL (    3565 calls)
     cegterg      :    127.75s CPU    128.78s WALL (    1610 calls)

     Called by *egterg:
     cdiaghg      :     10.73s CPU     10.77s WALL (    6218 calls)
     h_psi        :     99.62s CPU    100.60s WALL (    6333 calls)
     s_psi        :      3.87s CPU      3.89s WALL (    6333 calls)
     g_psi        :      0.35s CPU      0.35s WALL (    4608 calls)

     Called by h_psi:
     h_psi:calbec :      6.39s CPU      6.44s WALL (    6333 calls)
     vloc_psi     :     88.42s CPU     89.30s WALL (    6333 calls)
     add_vuspsi   :      4.11s CPU      4.15s WALL (    6333 calls)

     General routines
     calbec       :      8.26s CPU      8.34s WALL (    8518 calls)
     fft          :      0.40s CPU      0.40s WALL (     173 calls)
     ffts         :      0.01s CPU      0.01s WALL (      14 calls)
     fftw         :     91.97s CPU     92.86s WALL (  392560 calls)

     Parallel routines

     PWSCF        :   2m43.71s CPU   2m53.39s WALL


   This run was terminated on:  20:12: 1  24Mar2026            

=------------------------------------------------------------------------------=
   JOB DONE.
=------------------------------------------------------------------------------=
