
     Program PWSCF v.7.3.1 starts on 24Mar2026 at 20:12: 4 

     This program is part of the open-source Quantum ESPRESSO suite
     for quantum simulation of materials; please cite
         "P. Giannozzi et al., J. Phys.:Condens. Matter 21 395502 (2009);
         "P. Giannozzi et al., J. Phys.:Condens. Matter 29 465901 (2017);
         "P. Giannozzi et al., J. Chem. Phys. 152 154105 (2020);
          URL http://www.quantum-espresso.org", 
     in publications or presentations arising from this work. More details at
     http://www.quantum-espresso.org/quote

     Parallel version (MPI), running on   128 processors

     MPI processes distributed on     1 nodes
     237456 MiB available memory on the printing compute node when the environment starts

     Waiting for input...
     Reading input from standard input

     Current dimensions of program PWSCF are:
     Max number of different atomic species (ntypx) = 10
     Max number of k-points (npk) =  40000
     Max angular momentum in pseudopotentials (lmaxx) =  4
     Found identity + ( -0.5000  0.5000 -0.0000) symmetry
     This is a supercell, fractional translations are disabled

     K-points division:     npool     =       4
     R & G space division:  proc/nbgrp/npool/nimage =      32
     Subspace diagonalization in iterative solution of the eigenvalue problem:
     a serial algorithm will be used


     Parallelization info
     --------------------
     sticks:   dense  smooth     PW     G-vecs:    dense   smooth      PW
     Min         109     109     29                 5999     5999     865
     Max         111     111     30                 6005     6005     872
     Sum        3501    3501    957               192071   192071   27855

     Using Slab Decomposition



     bravais-lattice index     =            8
     lattice parameter (alat)  =       8.3884  a.u.
     unit-cell volume          =    1664.1844 (a.u.)^3
     number of atoms/cell      =           24
     number of atomic types    =            2
     number of electrons       =        64.00
     number of Kohn-Sham states=           32
     kinetic-energy cutoff     =      90.0000  Ry
     charge density cutoff     =     360.0000  Ry
     scf convergence threshold =      1.0E-07
     mixing beta               =       0.7000
     number of iterations used =            8  plain     mixing
     Exchange-correlation=  SLA  PW   PBE  PBE
                           (   1   4   3   4   0   0   0)

     celldm(1)=   8.388441  celldm(2)=   1.732119  celldm(3)=   1.627721
     celldm(4)=   0.000000  celldm(5)=   0.000000  celldm(6)=   0.000000

     crystal axes: (cart. coord. in units of alat)
               a(1) = (   1.000000   0.000000   0.000000 )  
               a(2) = (   0.000000   1.732119   0.000000 )  
               a(3) = (   0.000000   0.000000   1.627721 )  

     reciprocal axes: (cart. coord. in units 2 pi/alat)
               b(1) = (  1.000000  0.000000  0.000000 )  
               b(2) = (  0.000000  0.577328  0.000000 )  
               b(3) = (  0.000000  0.000000  0.614356 )  


     PseudoPot. # 1 for H  read from file:
     ./H.pbe-van_ak.UPF
     MD5 check sum: 077eb6d537518a38cb46c6de387227b7
     Pseudo is Ultrasoft, Zval =  1.0
     Generated by new atomic code, or converted to UPF format
     Using radial grid of  615 points,  1 beta functions with: 
                l(1) =   0
     Q(r) pseudized with  8 coefficients,  rinner =    0.800

     PseudoPot. # 2 for O  read from file:
     ./O.pbe-van_ak.UPF
     MD5 check sum: 78c19812648e8988a0fe644b0f25305e
     Pseudo is Ultrasoft, Zval =  6.0
     Generated by new atomic code, or converted to UPF format
     Using radial grid of  737 points,  4 beta functions with: 
                l(1) =   0
                l(2) =   0
                l(3) =   1
                l(4) =   1
     Q(r) pseudized with  8 coefficients,  rinner =    0.800   0.800   0.800


     atomic species   valence    mass     pseudopotential
     H                 1.00     1.00800     H ( 1.00)
     O                 6.00    16.00000     O ( 1.00)

      2 Sym. Ops. (no inversion) found



   Cartesian axes

     site n.     atom                  positions (alat units)
         1        O      tau(   1) = (   0.0000000   1.1484866   0.0984416  )
         2        O      tau(   2) = (   0.0000000   0.5836324   0.9123021  )
         3        O      tau(   3) = (   0.5000000   0.2824271   0.0984415  )
         4        O      tau(   4) = (   0.5000000   1.4496920   0.9123021  )
         5        O      tau(   5) = (   0.5000000   1.4402433   1.5187349  )
         6        O      tau(   6) = (   0.5000000   0.2918758   0.7048744  )
         7        O      tau(   7) = (   0.0000000   0.5741838   1.5187348  )
         8        O      tau(   8) = (   0.0000000   1.1579353   0.7048743  )
         9        H      tau(   9) = (   0.0000000   1.1487418   0.3216685  )
        10        H      tau(  10) = (   0.0000000   0.5833772   1.1355290  )
        11        H      tau(  11) = (   0.5000000   0.2826823   0.3216685  )
        12        H      tau(  12) = (   0.5000000   1.4494367   1.1355290  )
        13        H      tau(  13) = (   0.0000000   0.9333594   0.0315143  )
        14        H      tau(  14) = (   0.0000000   0.7987597   0.8453748  )
        15        H      tau(  15) = (   0.5000000   0.0672998   0.0315143  )
        16        H      tau(  16) = (   0.5000000   1.6648192   0.8453748  )
        17        H      tau(  17) = (   0.6820699   1.3365463   1.6012691  )
        18        H      tau(  18) = (   0.3179301   0.3955728   0.7874086  )
        19        H      tau(  19) = (   0.6820699   0.3955728   0.7874086  )
        20        H      tau(  20) = (   0.3179301   1.3365463   1.6012691  )
        21        H      tau(  21) = (   0.1820699   0.4704867   1.6012691  )
        22        H      tau(  22) = (   0.8179301   1.2616323   0.7874086  )
        23        H      tau(  23) = (   0.1820699   1.2616323   0.7874086  )
        24        H      tau(  24) = (   0.8179301   0.4704867   1.6012691  )

     number of k points=   460

     Number of k-points >= 100: set verbosity='high' to print them.

     Dense  grid:   192071 G-vectors     FFT dimensions: (  54,  90,  90)

     Estimated max dynamical RAM per process >      50.31 MB

     Estimated total dynamical RAM >       6.15 GB

     Initial potential from superposition of free atoms

     starting charge      63.9998, renormalised to      64.0000
     Starting wfcs are   48 randomized atomic wfcs

     total cpu time spent up to now is        4.9 secs

     per-process dynamical memory:    57.8 Mb

     Self-consistent Calculation

     iteration #  1     ecut=    90.00 Ry     beta= 0.70
     Davidson diagonalization with overlap
     ethr =  1.00E-02,  avg # of iterations =  2.0

     total cpu time spent up to now is       13.9 secs

     total energy              =    -274.93492495 Ry
     estimated scf accuracy    <       2.63044133 Ry

     iteration #  2     ecut=    90.00 Ry     beta= 0.70
     Davidson diagonalization with overlap
     ethr =  4.11E-03,  avg # of iterations =  3.0

     total cpu time spent up to now is       25.9 secs

     total energy              =    -275.77241924 Ry
     estimated scf accuracy    <       1.51659011 Ry

     iteration #  3     ecut=    90.00 Ry     beta= 0.70
     Davidson diagonalization with overlap
     ethr =  2.37E-03,  avg # of iterations =  2.0

     total cpu time spent up to now is       35.0 secs

     total energy              =    -275.96917733 Ry
     estimated scf accuracy    <       0.06055912 Ry

     iteration #  4     ecut=    90.00 Ry     beta= 0.70
     Davidson diagonalization with overlap
     ethr =  9.46E-05,  avg # of iterations =  4.1

     total cpu time spent up to now is       48.5 secs

     total energy              =    -276.01575530 Ry
     estimated scf accuracy    <       0.07256280 Ry

     iteration #  5     ecut=    90.00 Ry     beta= 0.70
     Davidson diagonalization with overlap
     ethr =  9.46E-05,  avg # of iterations =  2.0

     total cpu time spent up to now is       56.5 secs

     total energy              =    -276.01880764 Ry
     estimated scf accuracy    <       0.01140339 Ry

     iteration #  6     ecut=    90.00 Ry     beta= 0.70
     Davidson diagonalization with overlap
     ethr =  1.78E-05,  avg # of iterations =  2.0

     total cpu time spent up to now is       64.7 secs

     total energy              =    -276.01791633 Ry
     estimated scf accuracy    <       0.00429085 Ry

     iteration #  7     ecut=    90.00 Ry     beta= 0.70
     Davidson diagonalization with overlap
     ethr =  6.70E-06,  avg # of iterations =  3.0

     total cpu time spent up to now is       75.6 secs

     total energy              =    -276.01946661 Ry
     estimated scf accuracy    <       0.00004388 Ry

     iteration #  8     ecut=    90.00 Ry     beta= 0.70
     Davidson diagonalization with overlap
     ethr =  6.86E-08,  avg # of iterations =  5.2

     total cpu time spent up to now is       91.4 secs

     total energy              =    -276.01942634 Ry
     estimated scf accuracy    <       0.00089869 Ry

     iteration #  9     ecut=    90.00 Ry     beta= 0.70
     Davidson diagonalization with overlap
     ethr =  6.86E-08,  avg # of iterations =  3.1

     total cpu time spent up to now is      103.4 secs

     total energy              =    -276.01936366 Ry
     estimated scf accuracy    <       0.00030255 Ry

     iteration # 10     ecut=    90.00 Ry     beta= 0.70
     Davidson diagonalization with overlap
     ethr =  6.86E-08,  avg # of iterations =  3.0

     total cpu time spent up to now is      114.4 secs

     total energy              =    -276.01936618 Ry
     estimated scf accuracy    <       0.00005175 Ry

     iteration # 11     ecut=    90.00 Ry     beta= 0.70
     Davidson diagonalization with overlap
     ethr =  6.86E-08,  avg # of iterations =  2.0

     total cpu time spent up to now is      123.8 secs

     total energy              =    -276.01937489 Ry
     estimated scf accuracy    <       0.00000188 Ry

     iteration # 12     ecut=    90.00 Ry     beta= 0.70
     Davidson diagonalization with overlap
     ethr =  2.94E-09,  avg # of iterations =  4.1

     total cpu time spent up to now is      137.4 secs

     total energy              =    -276.01937665 Ry
     estimated scf accuracy    <       0.00000134 Ry

     iteration # 13     ecut=    90.00 Ry     beta= 0.70
     Davidson diagonalization with overlap
     ethr =  2.10E-09,  avg # of iterations =  1.3

     total cpu time spent up to now is      144.6 secs

     total energy              =    -276.01937650 Ry
     estimated scf accuracy    <       0.00000033 Ry

     iteration # 14     ecut=    90.00 Ry     beta= 0.70
     Davidson diagonalization with overlap
     ethr =  5.22E-10,  avg # of iterations =  3.0

     total cpu time spent up to now is      156.5 secs

     total energy              =    -276.01937672 Ry
     estimated scf accuracy    <       0.00000029 Ry

     iteration # 15     ecut=    90.00 Ry     beta= 0.70
     Davidson diagonalization with overlap
     ethr =  4.56E-10,  avg # of iterations =  1.0

     total cpu time spent up to now is      163.3 secs

     total energy              =    -276.01937663 Ry
     estimated scf accuracy    <       0.00000018 Ry

     iteration # 16     ecut=    90.00 Ry     beta= 0.70
     Davidson diagonalization with overlap
     ethr =  2.74E-10,  avg # of iterations =  2.0

     total cpu time spent up to now is      173.0 secs

     End of self-consistent calculation

     Number of k-points >= 100: set verbosity='high' to print the bands.

     highest occupied level (ev):    -3.2920

!    total energy              =    -276.01937667 Ry
     estimated scf accuracy    <          2.7E-10 Ry

     The total energy is the sum of the following terms:
     one-electron contribution =    -233.51260490 Ry
     hartree contribution      =     137.69660856 Ry
     xc contribution           =     -67.81905940 Ry
     ewald contribution        =    -112.38432093 Ry

     convergence has been achieved in  16 iterations

     Forces acting on atoms (cartesian axes, Ry/au):

     atom    1 type  2   force =     0.00000000    0.01213778   -0.01909408
     atom    2 type  2   force =     0.00000000   -0.01213798   -0.01909412
     atom    3 type  2   force =     0.00000000    0.01213749   -0.01909404
     atom    4 type  2   force =     0.00000000   -0.01213761   -0.01909401
     atom    5 type  2   force =     0.00000000    0.01339967   -0.00076977
     atom    6 type  2   force =     0.00000000   -0.01339971   -0.00076970
     atom    7 type  2   force =     0.00000000    0.01339949   -0.00076968
     atom    8 type  2   force =     0.00000000   -0.01339947   -0.00076967
     atom    9 type  1   force =     0.00000000   -0.00046247    0.02091559
     atom   10 type  1   force =     0.00000000    0.00046247    0.02091565
     atom   11 type  1   force =     0.00000000   -0.00046249    0.02091562
     atom   12 type  1   force =     0.00000000    0.00046252    0.02091568
     atom   13 type  1   force =     0.00000000   -0.00621587   -0.00415684
     atom   14 type  1   force =     0.00000000    0.00621595   -0.00415687
     atom   15 type  1   force =     0.00000000   -0.00621581   -0.00415682
     atom   16 type  1   force =     0.00000000    0.00621598   -0.00415684
     atom   17 type  1   force =     0.00304172   -0.00932125    0.00155250
     atom   18 type  1   force =    -0.00304177    0.00932127    0.00155251
     atom   19 type  1   force =     0.00304177    0.00932127    0.00155251
     atom   20 type  1   force =    -0.00304172   -0.00932125    0.00155250
     atom   21 type  1   force =     0.00304174   -0.00932124    0.00155247
     atom   22 type  1   force =    -0.00304175    0.00932125    0.00155247
     atom   23 type  1   force =     0.00304175    0.00932125    0.00155247
     atom   24 type  1   force =    -0.00304174   -0.00932124    0.00155247

     Total force =     0.074370     Total SCF correction =     0.000009


     Computing stress (Cartesian axis) and pressure

          total   stress  (Ry/bohr**3)                   (kbar)     P=        5.64
  -0.00002154   0.00000000   0.00000000           -3.17        0.00        0.00
   0.00000000   0.00002886  -0.00000000            0.00        4.24       -0.00
   0.00000000  -0.00000000   0.00010774            0.00       -0.00       15.85


     Writing all to output data dir ./iceIh/iceIh.save/ :
     XML data file, charge density, pseudopotentials, collected wavefunctions

     init_run     :      4.55s CPU      4.64s WALL (       1 calls)
     electrons    :    165.87s CPU    168.19s WALL (       1 calls)
     forces       :      0.57s CPU      0.58s WALL (       1 calls)
     stress       :      8.55s CPU      8.56s WALL (       1 calls)

     Called by init_run:
     wfcinit      :      4.11s CPU      4.16s WALL (       1 calls)
     potinit      :      0.03s CPU      0.04s WALL (       1 calls)
     hinit0       :      0.33s CPU      0.34s WALL (       1 calls)

     Called by electrons:
     c_bands      :    147.72s CPU    149.75s WALL (      16 calls)
     sum_band     :     17.84s CPU     18.06s WALL (      16 calls)
     v_of_rho     :      0.19s CPU      0.20s WALL (      17 calls)
     newd         :      0.04s CPU      0.04s WALL (      17 calls)
     mix_rho      :      0.05s CPU      0.05s WALL (      16 calls)

     Called by c_bands:
     init_us_2    :      2.12s CPU      2.20s WALL (    4025 calls)
     cegterg      :    143.29s CPU    144.56s WALL (    1840 calls)

     Called by *egterg:
     cdiaghg      :     11.85s CPU     11.90s WALL (    6856 calls)
     h_psi        :    111.67s CPU    112.84s WALL (    6971 calls)
     s_psi        :      4.31s CPU      4.35s WALL (    6971 calls)
     g_psi        :      0.40s CPU      0.40s WALL (    5016 calls)

     Called by h_psi:
     h_psi:calbec :      7.08s CPU      7.15s WALL (    6971 calls)
     vloc_psi     :     99.18s CPU    100.20s WALL (    6971 calls)
     add_vuspsi   :      4.62s CPU      4.67s WALL (    6971 calls)

     General routines
     calbec       :      9.17s CPU      9.27s WALL (    9386 calls)
     fft          :      0.42s CPU      0.42s WALL (     195 calls)
     ffts         :      0.01s CPU      0.01s WALL (      16 calls)
     fftw         :    103.20s CPU    104.26s WALL (  439660 calls)

     Parallel routines

     PWSCF        :   3m 1.90s CPU   3m 8.15s WALL


   This run was terminated on:  20:15:12  24Mar2026            

=------------------------------------------------------------------------------=
   JOB DONE.
=------------------------------------------------------------------------------=
