
     Program PWSCF v.7.3.1 starts on 21Mar2026 at  3:51:55 

     This program is part of the open-source Quantum ESPRESSO suite
     for quantum simulation of materials; please cite
         "P. Giannozzi et al., J. Phys.:Condens. Matter 21 395502 (2009);
         "P. Giannozzi et al., J. Phys.:Condens. Matter 29 465901 (2017);
         "P. Giannozzi et al., J. Chem. Phys. 152 154105 (2020);
          URL http://www.quantum-espresso.org", 
     in publications or presentations arising from this work. More details at
     http://www.quantum-espresso.org/quote

     Parallel version (MPI), running on   128 processors

     MPI processes distributed on     1 nodes
     237139 MiB available memory on the printing compute node when the environment starts

     Waiting for input...
     Reading input from standard input

     Current dimensions of program PWSCF are:
     Max number of different atomic species (ntypx) = 10
     Max number of k-points (npk) =  40000
     Max angular momentum in pseudopotentials (lmaxx) =  4
     Found identity + ( -0.5000 -0.5000  0.0000) symmetry
     This is a supercell, fractional translations are disabled

     K-points division:     npool     =       4
     R & G space division:  proc/nbgrp/npool/nimage =      32
     Subspace diagonalization in iterative solution of the eigenvalue problem:
     a serial algorithm will be used


     Parallelization info
     --------------------
     sticks:   dense  smooth     PW     G-vecs:    dense   smooth      PW
     Min         109     109     30                 6035     6035     874
     Max         110     110     32                 6040     6040     877
     Sum        3505    3505    981               193203   193203   27991

     Using Slab Decomposition



     bravais-lattice index     =            8
     lattice parameter (alat)  =       8.4055  a.u.
     unit-cell volume          =    1674.3318 (a.u.)^3
     number of atoms/cell      =           24
     number of atomic types    =            2
     number of electrons       =        64.00
     number of Kohn-Sham states=           32
     kinetic-energy cutoff     =      90.0000  Ry
     charge density cutoff     =     360.0000  Ry
     scf convergence threshold =      1.0E-07
     mixing beta               =       0.7000
     number of iterations used =            8  plain     mixing
     Exchange-correlation=  SLA  PW   PBE  PBE
                           (   1   4   3   4   0   0   0)

     celldm(1)=   8.405456  celldm(2)=   1.732119  celldm(3)=   1.627721
     celldm(4)=   0.000000  celldm(5)=   0.000000  celldm(6)=   0.000000

     crystal axes: (cart. coord. in units of alat)
               a(1) = (   1.000000   0.000000   0.000000 )  
               a(2) = (   0.000000   1.732119   0.000000 )  
               a(3) = (   0.000000   0.000000   1.627721 )  

     reciprocal axes: (cart. coord. in units 2 pi/alat)
               b(1) = (  1.000000  0.000000  0.000000 )  
               b(2) = (  0.000000  0.577328  0.000000 )  
               b(3) = (  0.000000  0.000000  0.614356 )  


     PseudoPot. # 1 for H  read from file:
     ./H.pbe-van_ak.UPF
     MD5 check sum: 077eb6d537518a38cb46c6de387227b7
     Pseudo is Ultrasoft, Zval =  1.0
     Generated by new atomic code, or converted to UPF format
     Using radial grid of  615 points,  1 beta functions with: 
                l(1) =   0
     Q(r) pseudized with  8 coefficients,  rinner =    0.800

     PseudoPot. # 2 for O  read from file:
     ./O.pbe-van_ak.UPF
     MD5 check sum: 78c19812648e8988a0fe644b0f25305e
     Pseudo is Ultrasoft, Zval =  6.0
     Generated by new atomic code, or converted to UPF format
     Using radial grid of  737 points,  4 beta functions with: 
                l(1) =   0
                l(2) =   0
                l(3) =   1
                l(4) =   1
     Q(r) pseudized with  8 coefficients,  rinner =    0.800   0.800   0.800


     atomic species   valence    mass     pseudopotential
     H                 1.00     1.00800     H ( 1.00)
     O                 6.00    16.00000     O ( 1.00)

      2 Sym. Ops. (no inversion) found



   Cartesian axes

     site n.     atom                  positions (alat units)
         1        O      tau(   1) = (   0.0000000   1.1515127   0.1027092  )
         2        O      tau(   2) = (   0.0000000   0.5806063   0.9165697  )
         3        O      tau(   3) = (   0.5000000   0.2854532   0.1027092  )
         4        O      tau(   4) = (   0.5000000   1.4466659   0.9165697  )
         5        O      tau(   5) = (   0.5000000   1.4298643   1.5250118  )
         6        O      tau(   6) = (   0.5000000   0.3022548   0.7111513  )
         7        O      tau(   7) = (   0.0000000   0.5638048   1.5250118  )
         8        O      tau(   8) = (   0.0000000   1.1683143   0.7111513  )
         9        H      tau(   9) = (   0.0000000   1.1494343   0.3195216  )
        10        H      tau(  10) = (   0.0000000   0.5826848   1.1333822  )
        11        H      tau(  11) = (   0.5000000   0.2833747   0.3195216  )
        12        H      tau(  12) = (   0.5000000   1.4487443   1.1333822  )
        13        H      tau(  13) = (   0.0000000   0.9289355   0.0297873  )
        14        H      tau(  14) = (   0.0000000   0.8031836   0.8436478  )
        15        H      tau(  15) = (   0.5000000   0.0628759   0.0297873  )
        16        H      tau(  16) = (   0.5000000   1.6692431   0.8436478  )
        17        H      tau(  17) = (   0.6766000   1.3420459   1.5979337  )
        18        H      tau(  18) = (   0.3234000   0.3900732   0.7840732  )
        19        H      tau(  19) = (   0.6766000   0.3900732   0.7840732  )
        20        H      tau(  20) = (   0.3234000   1.3420459   1.5979337  )
        21        H      tau(  21) = (   0.1766000   0.4759863   1.5979337  )
        22        H      tau(  22) = (   0.8234000   1.2561327   0.7840732  )
        23        H      tau(  23) = (   0.1766000   1.2561327   0.7840732  )
        24        H      tau(  24) = (   0.8234000   0.4759863   1.5979337  )

     number of k points=   460

     Number of k-points >= 100: set verbosity='high' to print them.

     Dense  grid:   193203 G-vectors     FFT dimensions: (  54,  90,  90)

     Estimated max dynamical RAM per process >      50.63 MB

     Estimated total dynamical RAM >       6.19 GB

     Initial potential from superposition of free atoms

     starting charge      63.9998, renormalised to      64.0000
     Starting wfcs are   48 randomized atomic wfcs

     total cpu time spent up to now is        5.0 secs

     per-process dynamical memory:    58.3 Mb

     Self-consistent Calculation

     iteration #  1     ecut=    90.00 Ry     beta= 0.70
     Davidson diagonalization with overlap
     ethr =  1.00E-02,  avg # of iterations =  2.0

     total cpu time spent up to now is       14.2 secs

     total energy              =    -274.77246837 Ry
     estimated scf accuracy    <       2.86009559 Ry

     iteration #  2     ecut=    90.00 Ry     beta= 0.70
     Davidson diagonalization with overlap
     ethr =  4.47E-03,  avg # of iterations =  3.0

     total cpu time spent up to now is       26.2 secs

     total energy              =    -275.67907220 Ry
     estimated scf accuracy    <       1.57767796 Ry

     iteration #  3     ecut=    90.00 Ry     beta= 0.70
     Davidson diagonalization with overlap
     ethr =  2.47E-03,  avg # of iterations =  2.0

     total cpu time spent up to now is       35.2 secs

     total energy              =    -275.88653802 Ry
     estimated scf accuracy    <       0.06003432 Ry

     iteration #  4     ecut=    90.00 Ry     beta= 0.70
     Davidson diagonalization with overlap
     ethr =  9.38E-05,  avg # of iterations =  4.2

     total cpu time spent up to now is       49.1 secs

     total energy              =    -275.93331945 Ry
     estimated scf accuracy    <       0.07620166 Ry

     iteration #  5     ecut=    90.00 Ry     beta= 0.70
     Davidson diagonalization with overlap
     ethr =  9.38E-05,  avg # of iterations =  2.0

     total cpu time spent up to now is       57.3 secs

     total energy              =    -275.93613127 Ry
     estimated scf accuracy    <       0.01225307 Ry

     iteration #  6     ecut=    90.00 Ry     beta= 0.70
     Davidson diagonalization with overlap
     ethr =  1.91E-05,  avg # of iterations =  2.0

     total cpu time spent up to now is       66.1 secs

     total energy              =    -275.93603008 Ry
     estimated scf accuracy    <       0.00313000 Ry

     iteration #  7     ecut=    90.00 Ry     beta= 0.70
     Davidson diagonalization with overlap
     ethr =  4.89E-06,  avg # of iterations =  2.3

     total cpu time spent up to now is       76.6 secs

     total energy              =    -275.93723421 Ry
     estimated scf accuracy    <       0.00012775 Ry

     iteration #  8     ecut=    90.00 Ry     beta= 0.70
     Davidson diagonalization with overlap
     ethr =  2.00E-07,  avg # of iterations =  3.6

     total cpu time spent up to now is       89.0 secs

     total energy              =    -275.93720617 Ry
     estimated scf accuracy    <       0.00044090 Ry

     iteration #  9     ecut=    90.00 Ry     beta= 0.70
     Davidson diagonalization with overlap
     ethr =  2.00E-07,  avg # of iterations =  2.0

     total cpu time spent up to now is       97.1 secs

     total energy              =    -275.93714401 Ry
     estimated scf accuracy    <       0.00020648 Ry

     iteration # 10     ecut=    90.00 Ry     beta= 0.70
     Davidson diagonalization with overlap
     ethr =  2.00E-07,  avg # of iterations =  2.0

     total cpu time spent up to now is      106.4 secs

     total energy              =    -275.93715413 Ry
     estimated scf accuracy    <       0.00002750 Ry

     iteration # 11     ecut=    90.00 Ry     beta= 0.70
     Davidson diagonalization with overlap
     ethr =  4.30E-08,  avg # of iterations =  2.9

     total cpu time spent up to now is      116.8 secs

     total energy              =    -275.93716219 Ry
     estimated scf accuracy    <       0.00000021 Ry

     iteration # 12     ecut=    90.00 Ry     beta= 0.70
     Davidson diagonalization with overlap
     ethr =  3.23E-10,  avg # of iterations =  5.8

     total cpu time spent up to now is      134.3 secs

     total energy              =    -275.93716292 Ry
     estimated scf accuracy    <       0.00000134 Ry

     iteration # 13     ecut=    90.00 Ry     beta= 0.70
     Davidson diagonalization with overlap
     ethr =  3.23E-10,  avg # of iterations =  2.0

     total cpu time spent up to now is      142.4 secs

     total energy              =    -275.93716246 Ry
     estimated scf accuracy    <       0.00000080 Ry

     iteration # 14     ecut=    90.00 Ry     beta= 0.70
     Davidson diagonalization with overlap
     ethr =  3.23E-10,  avg # of iterations =  4.0

     total cpu time spent up to now is      155.8 secs

     End of self-consistent calculation

     Number of k-points >= 100: set verbosity='high' to print the bands.

     highest occupied level (ev):    -3.2847

!    total energy              =    -275.93716268 Ry
     estimated scf accuracy    <       0.00000009 Ry

     The total energy is the sum of the following terms:
     one-electron contribution =    -237.78083694 Ry
     hartree contribution      =     139.59891686 Ry
     xc contribution           =     -68.16059874 Ry
     ewald contribution        =    -109.59464386 Ry

     convergence has been achieved in  14 iterations

     Forces acting on atoms (cartesian axes, Ry/au):

     atom    1 type  2   force =     0.00000000   -0.04595588   -0.08064560
     atom    2 type  2   force =     0.00000000    0.04595590   -0.08064470
     atom    3 type  2   force =     0.00000000   -0.04595578   -0.08064562
     atom    4 type  2   force =     0.00000000    0.04595547   -0.08064512
     atom    5 type  2   force =     0.00000000    0.13338862   -0.09334769
     atom    6 type  2   force =     0.00000000   -0.13338850   -0.09334741
     atom    7 type  2   force =     0.00000000    0.13338869   -0.09334769
     atom    8 type  2   force =     0.00000000   -0.13338841   -0.09334750
     atom    9 type  1   force =     0.00000000   -0.00280607    0.05830707
     atom   10 type  1   force =     0.00000000    0.00280610    0.05830635
     atom   11 type  1   force =     0.00000000   -0.00280606    0.05830708
     atom   12 type  1   force =     0.00000000    0.00280607    0.05830615
     atom   13 type  1   force =     0.00000000    0.04649518    0.01673586
     atom   14 type  1   force =     0.00000000   -0.04649508    0.01673582
     atom   15 type  1   force =     0.00000000    0.04649516    0.01673584
     atom   16 type  1   force =     0.00000000   -0.04649517    0.01673581
     atom   17 type  1   force =     0.09351840   -0.06564826    0.04947521
     atom   18 type  1   force =    -0.09351824    0.06564820    0.04947515
     atom   19 type  1   force =     0.09351824    0.06564820    0.04947515
     atom   20 type  1   force =    -0.09351840   -0.06564826    0.04947521
     atom   21 type  1   force =     0.09351835   -0.06564824    0.04947520
     atom   22 type  1   force =    -0.09351817    0.06564817    0.04947512
     atom   23 type  1   force =     0.09351817    0.06564817    0.04947512
     atom   24 type  1   force =    -0.09351835   -0.06564824    0.04947520

     Total force =     0.536573     Total SCF correction =     0.000260


     Computing stress (Cartesian axis) and pressure

          total   stress  (Ry/bohr**3)                   (kbar)     P=       51.31
   0.00069324   0.00000000   0.00000000          101.98        0.00        0.00
   0.00000000  -0.00005399  -0.00000000            0.00       -7.94       -0.00
   0.00000000  -0.00000000   0.00040719            0.00       -0.00       59.90


     Writing all to output data dir ./iceIh/iceIh.save/ :
     XML data file, charge density, pseudopotentials, collected wavefunctions

     init_run     :      4.57s CPU      4.67s WALL (       1 calls)
     electrons    :    148.78s CPU    150.88s WALL (       1 calls)
     forces       :      0.57s CPU      0.58s WALL (       1 calls)
     stress       :      8.56s CPU      8.58s WALL (       1 calls)

     Called by init_run:
     wfcinit      :      4.12s CPU      4.18s WALL (       1 calls)
     potinit      :      0.03s CPU      0.04s WALL (       1 calls)
     hinit0       :      0.34s CPU      0.34s WALL (       1 calls)

     Called by electrons:
     c_bands      :    132.71s CPU    134.56s WALL (      14 calls)
     sum_band     :     15.83s CPU     15.96s WALL (      14 calls)
     v_of_rho     :      0.17s CPU      0.18s WALL (      15 calls)
     newd         :      0.03s CPU      0.04s WALL (      15 calls)
     mix_rho      :      0.04s CPU      0.04s WALL (      14 calls)

     Called by c_bands:
     init_us_2    :      1.91s CPU      1.96s WALL (    3565 calls)
     cegterg      :    127.90s CPU    128.97s WALL (    1610 calls)

     Called by *egterg:
     cdiaghg      :     10.74s CPU     10.80s WALL (    6275 calls)
     h_psi        :     99.68s CPU    100.65s WALL (    6390 calls)
     s_psi        :      3.95s CPU      3.98s WALL (    6390 calls)
     g_psi        :      0.35s CPU      0.35s WALL (    4665 calls)

     Called by h_psi:
     h_psi:calbec :      6.32s CPU      6.39s WALL (    6390 calls)
     vloc_psi     :     88.49s CPU     89.33s WALL (    6390 calls)
     add_vuspsi   :      4.12s CPU      4.17s WALL (    6390 calls)

     General routines
     calbec       :      8.18s CPU      8.27s WALL (    8575 calls)
     fft          :      0.40s CPU      0.41s WALL (     173 calls)
     ffts         :      0.01s CPU      0.01s WALL (      14 calls)
     fftw         :     92.33s CPU     93.18s WALL (  388150 calls)

     Parallel routines

     PWSCF        :   2m46.35s CPU   2m52.93s WALL


   This run was terminated on:   3:54:48  21Mar2026            

=------------------------------------------------------------------------------=
   JOB DONE.
=------------------------------------------------------------------------------=
