
     Program PWSCF v.7.3.1 starts on 21Mar2026 at  4:11:33 

     This program is part of the open-source Quantum ESPRESSO suite
     for quantum simulation of materials; please cite
         "P. Giannozzi et al., J. Phys.:Condens. Matter 21 395502 (2009);
         "P. Giannozzi et al., J. Phys.:Condens. Matter 29 465901 (2017);
         "P. Giannozzi et al., J. Chem. Phys. 152 154105 (2020);
          URL http://www.quantum-espresso.org", 
     in publications or presentations arising from this work. More details at
     http://www.quantum-espresso.org/quote

     Parallel version (MPI), running on   128 processors

     MPI processes distributed on     1 nodes
     237168 MiB available memory on the printing compute node when the environment starts

     Waiting for input...
     Reading input from standard input

     Current dimensions of program PWSCF are:
     Max number of different atomic species (ntypx) = 10
     Max number of k-points (npk) =  40000
     Max angular momentum in pseudopotentials (lmaxx) =  4
     Found identity + ( -0.5000 -0.5000  0.0000) symmetry
     This is a supercell, fractional translations are disabled

     K-points division:     npool     =       4
     R & G space division:  proc/nbgrp/npool/nimage =      32
     Subspace diagonalization in iterative solution of the eigenvalue problem:
     a serial algorithm will be used


     Parallelization info
     --------------------
     sticks:   dense  smooth     PW     G-vecs:    dense   smooth      PW
     Min         110     110     30                 6074     6074     880
     Max         111     111     32                 6077     6077     883
     Sum        3523    3523    981               194385   194385   28183

     Using Slab Decomposition



     bravais-lattice index     =            8
     lattice parameter (alat)  =       8.4225  a.u.
     unit-cell volume          =    1684.5204 (a.u.)^3
     number of atoms/cell      =           24
     number of atomic types    =            2
     number of electrons       =        64.00
     number of Kohn-Sham states=           32
     kinetic-energy cutoff     =      90.0000  Ry
     charge density cutoff     =     360.0000  Ry
     scf convergence threshold =      1.0E-07
     mixing beta               =       0.7000
     number of iterations used =            8  plain     mixing
     Exchange-correlation=  SLA  PW   PBE  PBE
                           (   1   4   3   4   0   0   0)

     celldm(1)=   8.422471  celldm(2)=   1.732119  celldm(3)=   1.627721
     celldm(4)=   0.000000  celldm(5)=   0.000000  celldm(6)=   0.000000

     crystal axes: (cart. coord. in units of alat)
               a(1) = (   1.000000   0.000000   0.000000 )  
               a(2) = (   0.000000   1.732119   0.000000 )  
               a(3) = (   0.000000   0.000000   1.627721 )  

     reciprocal axes: (cart. coord. in units 2 pi/alat)
               b(1) = (  1.000000  0.000000  0.000000 )  
               b(2) = (  0.000000  0.577328  0.000000 )  
               b(3) = (  0.000000  0.000000  0.614356 )  


     PseudoPot. # 1 for H  read from file:
     ./H.pbe-van_ak.UPF
     MD5 check sum: 077eb6d537518a38cb46c6de387227b7
     Pseudo is Ultrasoft, Zval =  1.0
     Generated by new atomic code, or converted to UPF format
     Using radial grid of  615 points,  1 beta functions with: 
                l(1) =   0
     Q(r) pseudized with  8 coefficients,  rinner =    0.800

     PseudoPot. # 2 for O  read from file:
     ./O.pbe-van_ak.UPF
     MD5 check sum: 78c19812648e8988a0fe644b0f25305e
     Pseudo is Ultrasoft, Zval =  6.0
     Generated by new atomic code, or converted to UPF format
     Using radial grid of  737 points,  4 beta functions with: 
                l(1) =   0
                l(2) =   0
                l(3) =   1
                l(4) =   1
     Q(r) pseudized with  8 coefficients,  rinner =    0.800   0.800   0.800


     atomic species   valence    mass     pseudopotential
     H                 1.00     1.00800     H ( 1.00)
     O                 6.00    16.00000     O ( 1.00)

      2 Sym. Ops. (no inversion) found



   Cartesian axes

     site n.     atom                  positions (alat units)
         1        O      tau(   1) = (   0.0000000   1.1515127   0.1027092  )
         2        O      tau(   2) = (   0.0000000   0.5806063   0.9165697  )
         3        O      tau(   3) = (   0.5000000   0.2854532   0.1027092  )
         4        O      tau(   4) = (   0.5000000   1.4466659   0.9165697  )
         5        O      tau(   5) = (   0.5000000   1.4298643   1.5250118  )
         6        O      tau(   6) = (   0.5000000   0.3022548   0.7111513  )
         7        O      tau(   7) = (   0.0000000   0.5638048   1.5250118  )
         8        O      tau(   8) = (   0.0000000   1.1683143   0.7111513  )
         9        H      tau(   9) = (   0.0000000   1.1494343   0.3195216  )
        10        H      tau(  10) = (   0.0000000   0.5826848   1.1333822  )
        11        H      tau(  11) = (   0.5000000   0.2833747   0.3195216  )
        12        H      tau(  12) = (   0.5000000   1.4487443   1.1333822  )
        13        H      tau(  13) = (   0.0000000   0.9289355   0.0297873  )
        14        H      tau(  14) = (   0.0000000   0.8031836   0.8436478  )
        15        H      tau(  15) = (   0.5000000   0.0628759   0.0297873  )
        16        H      tau(  16) = (   0.5000000   1.6692431   0.8436478  )
        17        H      tau(  17) = (   0.6766000   1.3420459   1.5979337  )
        18        H      tau(  18) = (   0.3234000   0.3900732   0.7840732  )
        19        H      tau(  19) = (   0.6766000   0.3900732   0.7840732  )
        20        H      tau(  20) = (   0.3234000   1.3420459   1.5979337  )
        21        H      tau(  21) = (   0.1766000   0.4759863   1.5979337  )
        22        H      tau(  22) = (   0.8234000   1.2561327   0.7840732  )
        23        H      tau(  23) = (   0.1766000   1.2561327   0.7840732  )
        24        H      tau(  24) = (   0.8234000   0.4759863   1.5979337  )

     number of k points=   460

     Number of k-points >= 100: set verbosity='high' to print them.

     Dense  grid:   194385 G-vectors     FFT dimensions: (  54,  90,  90)

     Estimated max dynamical RAM per process >      50.95 MB

     Estimated total dynamical RAM >       6.23 GB

     Initial potential from superposition of free atoms

     starting charge      63.9998, renormalised to      64.0000
     Starting wfcs are   48 randomized atomic wfcs

     total cpu time spent up to now is        5.0 secs

     per-process dynamical memory:    58.8 Mb

     Self-consistent Calculation

     iteration #  1     ecut=    90.00 Ry     beta= 0.70
     Davidson diagonalization with overlap
     ethr =  1.00E-02,  avg # of iterations =  2.0

     total cpu time spent up to now is       14.2 secs

     total energy              =    -274.77751868 Ry
     estimated scf accuracy    <       2.85090469 Ry

     iteration #  2     ecut=    90.00 Ry     beta= 0.70
     Davidson diagonalization with overlap
     ethr =  4.45E-03,  avg # of iterations =  3.0

     total cpu time spent up to now is       26.2 secs

     total energy              =    -275.67980907 Ry
     estimated scf accuracy    <       1.59051919 Ry

     iteration #  3     ecut=    90.00 Ry     beta= 0.70
     Davidson diagonalization with overlap
     ethr =  2.49E-03,  avg # of iterations =  2.0

     total cpu time spent up to now is       35.3 secs

     total energy              =    -275.88969189 Ry
     estimated scf accuracy    <       0.06049859 Ry

     iteration #  4     ecut=    90.00 Ry     beta= 0.70
     Davidson diagonalization with overlap
     ethr =  9.45E-05,  avg # of iterations =  4.2

     negative rho (up, down):  1.828E-07 0.000E+00

     total cpu time spent up to now is       49.2 secs

     total energy              =    -275.93698255 Ry
     estimated scf accuracy    <       0.07675368 Ry

     iteration #  5     ecut=    90.00 Ry     beta= 0.70
     Davidson diagonalization with overlap
     ethr =  9.45E-05,  avg # of iterations =  2.0

     negative rho (up, down):  2.478E-07 0.000E+00

     total cpu time spent up to now is       57.3 secs

     total energy              =    -275.93977855 Ry
     estimated scf accuracy    <       0.01233923 Ry

     iteration #  6     ecut=    90.00 Ry     beta= 0.70
     Davidson diagonalization with overlap
     ethr =  1.93E-05,  avg # of iterations =  2.0

     negative rho (up, down):  3.250E-07 0.000E+00

     total cpu time spent up to now is       66.1 secs

     total energy              =    -275.93964618 Ry
     estimated scf accuracy    <       0.00317400 Ry

     iteration #  7     ecut=    90.00 Ry     beta= 0.70
     Davidson diagonalization with overlap
     ethr =  4.96E-06,  avg # of iterations =  2.3

     negative rho (up, down):  3.120E-07 0.000E+00

     total cpu time spent up to now is       76.7 secs

     total energy              =    -275.94088632 Ry
     estimated scf accuracy    <       0.00014014 Ry

     iteration #  8     ecut=    90.00 Ry     beta= 0.70
     Davidson diagonalization with overlap
     ethr =  2.19E-07,  avg # of iterations =  3.5

     negative rho (up, down):  3.030E-07 0.000E+00

     total cpu time spent up to now is       88.9 secs

     total energy              =    -275.94084621 Ry
     estimated scf accuracy    <       0.00048125 Ry

     iteration #  9     ecut=    90.00 Ry     beta= 0.70
     Davidson diagonalization with overlap
     ethr =  2.19E-07,  avg # of iterations =  2.0

     negative rho (up, down):  2.854E-07 0.000E+00

     total cpu time spent up to now is       97.2 secs

     total energy              =    -275.94078756 Ry
     estimated scf accuracy    <       0.00021290 Ry

     iteration # 10     ecut=    90.00 Ry     beta= 0.70
     Davidson diagonalization with overlap
     ethr =  2.19E-07,  avg # of iterations =  2.0

     negative rho (up, down):  2.777E-07 0.000E+00

     total cpu time spent up to now is      106.3 secs

     total energy              =    -275.94079421 Ry
     estimated scf accuracy    <       0.00003322 Ry

     iteration # 11     ecut=    90.00 Ry     beta= 0.70
     Davidson diagonalization with overlap
     ethr =  5.19E-08,  avg # of iterations =  2.8

     negative rho (up, down):  2.762E-07 0.000E+00

     total cpu time spent up to now is      116.4 secs

     total energy              =    -275.94080261 Ry
     estimated scf accuracy    <       0.00000064 Ry

     iteration # 12     ecut=    90.00 Ry     beta= 0.70
     Davidson diagonalization with overlap
     ethr =  1.00E-09,  avg # of iterations =  5.0

     negative rho (up, down):  2.766E-07 0.000E+00

     total cpu time spent up to now is      131.4 secs

     total energy              =    -275.94080368 Ry
     estimated scf accuracy    <       0.00000069 Ry

     iteration # 13     ecut=    90.00 Ry     beta= 0.70
     Davidson diagonalization with overlap
     ethr =  1.00E-09,  avg # of iterations =  1.0

     negative rho (up, down):  2.793E-07 0.000E+00

     total cpu time spent up to now is      138.2 secs

     total energy              =    -275.94080338 Ry
     estimated scf accuracy    <       0.00000055 Ry

     iteration # 14     ecut=    90.00 Ry     beta= 0.70
     Davidson diagonalization with overlap
     ethr =  8.63E-10,  avg # of iterations =  2.2

     negative rho (up, down):  2.792E-07 0.000E+00

     total cpu time spent up to now is      148.5 secs

     End of self-consistent calculation

     Number of k-points >= 100: set verbosity='high' to print the bands.

     highest occupied level (ev):    -3.3087

!    total energy              =    -275.94080350 Ry
     estimated scf accuracy    <       0.00000002 Ry

     The total energy is the sum of the following terms:
     one-electron contribution =    -238.20266141 Ry
     hartree contribution      =     139.75949119 Ry
     xc contribution           =     -68.12439275 Ry
     ewald contribution        =    -109.37324054 Ry

     convergence has been achieved in  14 iterations

     Forces acting on atoms (cartesian axes, Ry/au):

     atom    1 type  2   force =     0.00000000   -0.04789782   -0.07758791
     atom    2 type  2   force =     0.00000000    0.04789839   -0.07758678
     atom    3 type  2   force =     0.00000000   -0.04789784   -0.07758779
     atom    4 type  2   force =     0.00000000    0.04789735   -0.07758728
     atom    5 type  2   force =     0.00000000    0.12968295   -0.09045729
     atom    6 type  2   force =     0.00000000   -0.12968263   -0.09045733
     atom    7 type  2   force =     0.00000000    0.12968275   -0.09045754
     atom    8 type  2   force =     0.00000000   -0.12968282   -0.09045706
     atom    9 type  1   force =     0.00000000   -0.00292774    0.05442167
     atom   10 type  1   force =     0.00000000    0.00292780    0.05442093
     atom   11 type  1   force =     0.00000000   -0.00292781    0.05442153
     atom   12 type  1   force =     0.00000000    0.00292773    0.05442078
     atom   13 type  1   force =     0.00000000    0.04869835    0.01767268
     atom   14 type  1   force =     0.00000000   -0.04869816    0.01767268
     atom   15 type  1   force =     0.00000000    0.04869832    0.01767277
     atom   16 type  1   force =     0.00000000   -0.04869836    0.01767269
     atom   17 type  1   force =     0.08952056   -0.06379832    0.04797546
     atom   18 type  1   force =    -0.08952034    0.06379820    0.04797537
     atom   19 type  1   force =     0.08952034    0.06379820    0.04797537
     atom   20 type  1   force =    -0.08952056   -0.06379832    0.04797546
     atom   21 type  1   force =     0.08952043   -0.06379826    0.04797542
     atom   22 type  1   force =    -0.08952035    0.06379816    0.04797538
     atom   23 type  1   force =     0.08952035    0.06379816    0.04797538
     atom   24 type  1   force =    -0.08952043   -0.06379826    0.04797542

     Total force =     0.520537     Total SCF correction =     0.000150


     Computing stress (Cartesian axis) and pressure

          total   stress  (Ry/bohr**3)                   (kbar)     P=       46.90
   0.00065604   0.00000000   0.00000000           96.51        0.00        0.00
   0.00000000  -0.00007614  -0.00000000            0.00      -11.20       -0.00
   0.00000000  -0.00000000   0.00037657            0.00       -0.00       55.40


     Writing all to output data dir ./iceIh/iceIh.save/ :
     XML data file, charge density, pseudopotentials, collected wavefunctions

     init_run     :      4.56s CPU      4.68s WALL (       1 calls)
     electrons    :    141.50s CPU    143.55s WALL (       1 calls)
     forces       :      0.61s CPU      0.63s WALL (       1 calls)
     stress       :      8.61s CPU      8.63s WALL (       1 calls)

     Called by init_run:
     wfcinit      :      4.12s CPU      4.20s WALL (       1 calls)
     potinit      :      0.03s CPU      0.04s WALL (       1 calls)
     hinit0       :      0.33s CPU      0.33s WALL (       1 calls)

     Called by electrons:
     c_bands      :    125.47s CPU    127.28s WALL (      14 calls)
     sum_band     :     15.76s CPU     15.90s WALL (      14 calls)
     v_of_rho     :      0.17s CPU      0.18s WALL (      15 calls)
     newd         :      0.03s CPU      0.04s WALL (      15 calls)
     mix_rho      :      0.03s CPU      0.04s WALL (      14 calls)

     Called by c_bands:
     init_us_2    :      1.89s CPU      1.95s WALL (    3565 calls)
     cegterg      :    120.46s CPU    121.49s WALL (    1610 calls)

     Called by *egterg:
     cdiaghg      :      9.92s CPU      9.96s WALL (    5822 calls)
     h_psi        :     94.78s CPU     95.76s WALL (    5937 calls)
     s_psi        :      3.76s CPU      3.78s WALL (    5937 calls)
     g_psi        :      0.33s CPU      0.33s WALL (    4212 calls)

     Called by h_psi:
     h_psi:calbec :      6.01s CPU      6.06s WALL (    5937 calls)
     vloc_psi     :     84.17s CPU     85.04s WALL (    5937 calls)
     add_vuspsi   :      3.92s CPU      3.96s WALL (    5937 calls)

     General routines
     calbec       :      7.94s CPU      8.02s WALL (    8122 calls)
     fft          :      0.41s CPU      0.41s WALL (     173 calls)
     ffts         :      0.01s CPU      0.01s WALL (      14 calls)
     fftw         :     88.25s CPU     89.13s WALL (  371480 calls)

     Parallel routines

     PWSCF        :   2m39.03s CPU   2m46.26s WALL


   This run was terminated on:   4:14:19  21Mar2026            

=------------------------------------------------------------------------------=
   JOB DONE.
=------------------------------------------------------------------------------=
