
     Program PWSCF v.7.3.1 starts on 24Mar2026 at 20:18:42 

     This program is part of the open-source Quantum ESPRESSO suite
     for quantum simulation of materials; please cite
         "P. Giannozzi et al., J. Phys.:Condens. Matter 21 395502 (2009);
         "P. Giannozzi et al., J. Phys.:Condens. Matter 29 465901 (2017);
         "P. Giannozzi et al., J. Chem. Phys. 152 154105 (2020);
          URL http://www.quantum-espresso.org", 
     in publications or presentations arising from this work. More details at
     http://www.quantum-espresso.org/quote

     Parallel version (MPI), running on   128 processors

     MPI processes distributed on     1 nodes
     237410 MiB available memory on the printing compute node when the environment starts

     Waiting for input...
     Reading input from standard input

     Current dimensions of program PWSCF are:
     Max number of different atomic species (ntypx) = 10
     Max number of k-points (npk) =  40000
     Max angular momentum in pseudopotentials (lmaxx) =  4
     Found identity + ( -0.5000  0.5000 -0.0000) symmetry
     This is a supercell, fractional translations are disabled

     K-points division:     npool     =       4
     R & G space division:  proc/nbgrp/npool/nimage =      32
     Subspace diagonalization in iterative solution of the eigenvalue problem:
     a serial algorithm will be used


     Parallelization info
     --------------------
     sticks:   dense  smooth     PW     G-vecs:    dense   smooth      PW
     Min         110     110     30                 6074     6074     880
     Max         111     111     32                 6077     6077     883
     Sum        3523    3523    981               194385   194385   28183

     Using Slab Decomposition



     bravais-lattice index     =            8
     lattice parameter (alat)  =       8.4225  a.u.
     unit-cell volume          =    1684.5204 (a.u.)^3
     number of atoms/cell      =           24
     number of atomic types    =            2
     number of electrons       =        64.00
     number of Kohn-Sham states=           32
     kinetic-energy cutoff     =      90.0000  Ry
     charge density cutoff     =     360.0000  Ry
     scf convergence threshold =      1.0E-07
     mixing beta               =       0.7000
     number of iterations used =            8  plain     mixing
     Exchange-correlation=  SLA  PW   PBE  PBE
                           (   1   4   3   4   0   0   0)

     celldm(1)=   8.422471  celldm(2)=   1.732119  celldm(3)=   1.627721
     celldm(4)=   0.000000  celldm(5)=   0.000000  celldm(6)=   0.000000

     crystal axes: (cart. coord. in units of alat)
               a(1) = (   1.000000   0.000000   0.000000 )  
               a(2) = (   0.000000   1.732119   0.000000 )  
               a(3) = (   0.000000   0.000000   1.627721 )  

     reciprocal axes: (cart. coord. in units 2 pi/alat)
               b(1) = (  1.000000  0.000000  0.000000 )  
               b(2) = (  0.000000  0.577328  0.000000 )  
               b(3) = (  0.000000  0.000000  0.614356 )  


     PseudoPot. # 1 for H  read from file:
     ./H.pbe-van_ak.UPF
     MD5 check sum: 077eb6d537518a38cb46c6de387227b7
     Pseudo is Ultrasoft, Zval =  1.0
     Generated by new atomic code, or converted to UPF format
     Using radial grid of  615 points,  1 beta functions with: 
                l(1) =   0
     Q(r) pseudized with  8 coefficients,  rinner =    0.800

     PseudoPot. # 2 for O  read from file:
     ./O.pbe-van_ak.UPF
     MD5 check sum: 78c19812648e8988a0fe644b0f25305e
     Pseudo is Ultrasoft, Zval =  6.0
     Generated by new atomic code, or converted to UPF format
     Using radial grid of  737 points,  4 beta functions with: 
                l(1) =   0
                l(2) =   0
                l(3) =   1
                l(4) =   1
     Q(r) pseudized with  8 coefficients,  rinner =    0.800   0.800   0.800


     atomic species   valence    mass     pseudopotential
     H                 1.00     1.00800     H ( 1.00)
     O                 6.00    16.00000     O ( 1.00)

      2 Sym. Ops. (no inversion) found



   Cartesian axes

     site n.     atom                  positions (alat units)
         1        O      tau(   1) = (   0.0000000   1.1484866   0.0984416  )
         2        O      tau(   2) = (   0.0000000   0.5836324   0.9123021  )
         3        O      tau(   3) = (   0.5000000   0.2824271   0.0984415  )
         4        O      tau(   4) = (   0.5000000   1.4496920   0.9123021  )
         5        O      tau(   5) = (   0.5000000   1.4402433   1.5187349  )
         6        O      tau(   6) = (   0.5000000   0.2918758   0.7048744  )
         7        O      tau(   7) = (   0.0000000   0.5741838   1.5187348  )
         8        O      tau(   8) = (   0.0000000   1.1579353   0.7048743  )
         9        H      tau(   9) = (   0.0000000   1.1487418   0.3216685  )
        10        H      tau(  10) = (   0.0000000   0.5833772   1.1355290  )
        11        H      tau(  11) = (   0.5000000   0.2826823   0.3216685  )
        12        H      tau(  12) = (   0.5000000   1.4494367   1.1355290  )
        13        H      tau(  13) = (   0.0000000   0.9333594   0.0315143  )
        14        H      tau(  14) = (   0.0000000   0.7987597   0.8453748  )
        15        H      tau(  15) = (   0.5000000   0.0672998   0.0315143  )
        16        H      tau(  16) = (   0.5000000   1.6648192   0.8453748  )
        17        H      tau(  17) = (   0.6820699   1.3365463   1.6012691  )
        18        H      tau(  18) = (   0.3179301   0.3955728   0.7874086  )
        19        H      tau(  19) = (   0.6820699   0.3955728   0.7874086  )
        20        H      tau(  20) = (   0.3179301   1.3365463   1.6012691  )
        21        H      tau(  21) = (   0.1820699   0.4704867   1.6012691  )
        22        H      tau(  22) = (   0.8179301   1.2616323   0.7874086  )
        23        H      tau(  23) = (   0.1820699   1.2616323   0.7874086  )
        24        H      tau(  24) = (   0.8179301   0.4704867   1.6012691  )

     number of k points=   460

     Number of k-points >= 100: set verbosity='high' to print them.

     Dense  grid:   194385 G-vectors     FFT dimensions: (  54,  90,  90)

     Estimated max dynamical RAM per process >      50.95 MB

     Estimated total dynamical RAM >       6.23 GB

     Initial potential from superposition of free atoms

     starting charge      63.9998, renormalised to      64.0000
     Starting wfcs are   48 randomized atomic wfcs

     total cpu time spent up to now is        5.0 secs

     per-process dynamical memory:    58.8 Mb

     Self-consistent Calculation

     iteration #  1     ecut=    90.00 Ry     beta= 0.70
     Davidson diagonalization with overlap
     ethr =  1.00E-02,  avg # of iterations =  2.0

     total cpu time spent up to now is       14.1 secs

     total energy              =    -274.93760669 Ry
     estimated scf accuracy    <       2.61485188 Ry

     iteration #  2     ecut=    90.00 Ry     beta= 0.70
     Davidson diagonalization with overlap
     ethr =  4.09E-03,  avg # of iterations =  3.0

     total cpu time spent up to now is       26.1 secs

     total energy              =    -275.76724336 Ry
     estimated scf accuracy    <       1.54314443 Ry

     iteration #  3     ecut=    90.00 Ry     beta= 0.70
     Davidson diagonalization with overlap
     ethr =  2.41E-03,  avg # of iterations =  2.0

     total cpu time spent up to now is       35.3 secs

     total energy              =    -275.96886778 Ry
     estimated scf accuracy    <       0.06157191 Ry

     iteration #  4     ecut=    90.00 Ry     beta= 0.70
     Davidson diagonalization with overlap
     ethr =  9.62E-05,  avg # of iterations =  4.0

     negative rho (up, down):  1.385E-07 0.000E+00

     total cpu time spent up to now is       49.0 secs

     total energy              =    -276.01639450 Ry
     estimated scf accuracy    <       0.07400268 Ry

     iteration #  5     ecut=    90.00 Ry     beta= 0.70
     Davidson diagonalization with overlap
     ethr =  9.62E-05,  avg # of iterations =  2.0

     negative rho (up, down):  1.902E-07 0.000E+00

     total cpu time spent up to now is       57.0 secs

     total energy              =    -276.01945226 Ry
     estimated scf accuracy    <       0.01164325 Ry

     iteration #  6     ecut=    90.00 Ry     beta= 0.70
     Davidson diagonalization with overlap
     ethr =  1.82E-05,  avg # of iterations =  2.0

     negative rho (up, down):  2.628E-07 0.000E+00

     total cpu time spent up to now is       65.2 secs

     total energy              =    -276.01851394 Ry
     estimated scf accuracy    <       0.00440115 Ry

     iteration #  7     ecut=    90.00 Ry     beta= 0.70
     Davidson diagonalization with overlap
     ethr =  6.88E-06,  avg # of iterations =  3.0

     negative rho (up, down):  2.764E-07 0.000E+00

     total cpu time spent up to now is       76.1 secs

     total energy              =    -276.02015035 Ry
     estimated scf accuracy    <       0.00005652 Ry

     iteration #  8     ecut=    90.00 Ry     beta= 0.70
     Davidson diagonalization with overlap
     ethr =  8.83E-08,  avg # of iterations =  4.7

     negative rho (up, down):  2.611E-07 0.000E+00

     total cpu time spent up to now is       91.4 secs

     total energy              =    -276.02010471 Ry
     estimated scf accuracy    <       0.00099742 Ry

     iteration #  9     ecut=    90.00 Ry     beta= 0.70
     Davidson diagonalization with overlap
     ethr =  8.83E-08,  avg # of iterations =  3.0

     negative rho (up, down):  2.371E-07 0.000E+00

     total cpu time spent up to now is      102.9 secs

     total energy              =    -276.02000498 Ry
     estimated scf accuracy    <       0.00037047 Ry

     iteration # 10     ecut=    90.00 Ry     beta= 0.70
     Davidson diagonalization with overlap
     ethr =  8.83E-08,  avg # of iterations =  3.0

     negative rho (up, down):  2.339E-07 0.000E+00

     total cpu time spent up to now is      115.0 secs

     total energy              =    -276.02003298 Ry
     estimated scf accuracy    <       0.00003310 Ry

     iteration # 11     ecut=    90.00 Ry     beta= 0.70
     Davidson diagonalization with overlap
     ethr =  5.17E-08,  avg # of iterations =  2.0

     negative rho (up, down):  2.325E-07 0.000E+00

     total cpu time spent up to now is      124.2 secs

     total energy              =    -276.02003768 Ry
     estimated scf accuracy    <       0.00000146 Ry

     iteration # 12     ecut=    90.00 Ry     beta= 0.70
     Davidson diagonalization with overlap
     ethr =  2.29E-09,  avg # of iterations =  3.0

     negative rho (up, down):  2.341E-07 0.000E+00

     total cpu time spent up to now is      135.0 secs

     End of self-consistent calculation

     Number of k-points >= 100: set verbosity='high' to print the bands.

     highest occupied level (ev):    -3.3426

!    total energy              =    -276.02003821 Ry
     estimated scf accuracy    <       0.00000009 Ry

     The total energy is the sum of the following terms:
     one-electron contribution =    -234.35532101 Ry
     hartree contribution      =     138.01127612 Ry
     xc contribution           =     -67.74575044 Ry
     ewald contribution        =    -111.93024287 Ry

     convergence has been achieved in  12 iterations

     Forces acting on atoms (cartesian axes, Ry/au):

     atom    1 type  2   force =     0.00000000    0.00666096   -0.01448069
     atom    2 type  2   force =     0.00000000   -0.00665902   -0.01447700
     atom    3 type  2   force =     0.00000000    0.00665663   -0.01447545
     atom    4 type  2   force =     0.00000000   -0.00665550   -0.01447384
     atom    5 type  2   force =     0.00000000    0.00818831    0.00317019
     atom    6 type  2   force =     0.00000000   -0.00818893    0.00317032
     atom    7 type  2   force =     0.00000000    0.00818430    0.00317416
     atom    8 type  2   force =     0.00000000   -0.00818667    0.00317269
     atom    9 type  1   force =     0.00000000   -0.00078826    0.01436683
     atom   10 type  1   force =     0.00000000    0.00078814    0.01436777
     atom   11 type  1   force =     0.00000000   -0.00078846    0.01436694
     atom   12 type  1   force =     0.00000000    0.00078843    0.01436732
     atom   13 type  1   force =     0.00000000   -0.00051314   -0.00198403
     atom   14 type  1   force =     0.00000000    0.00051329   -0.00198385
     atom   15 type  1   force =     0.00000000   -0.00051324   -0.00198380
     atom   16 type  1   force =     0.00000000    0.00051337   -0.00198366
     atom   17 type  1   force =    -0.00216367   -0.00669699   -0.00053954
     atom   18 type  1   force =     0.00216329    0.00669704   -0.00053941
     atom   19 type  1   force =    -0.00216329    0.00669704   -0.00053941
     atom   20 type  1   force =     0.00216367   -0.00669699   -0.00053954
     atom   21 type  1   force =    -0.00216283   -0.00669771   -0.00053899
     atom   22 type  1   force =     0.00216265    0.00669755   -0.00053901
     atom   23 type  1   force =    -0.00216265    0.00669755   -0.00053901
     atom   24 type  1   force =     0.00216283   -0.00669771   -0.00053899

     Total force =     0.050671     Total SCF correction =     0.000318


     Computing stress (Cartesian axis) and pressure

          total   stress  (Ry/bohr**3)                   (kbar)     P=       -2.40
  -0.00007500   0.00000000   0.00000000          -11.03        0.00        0.00
   0.00000000  -0.00002449  -0.00000000            0.00       -3.60       -0.00
   0.00000000  -0.00000000   0.00005060            0.00       -0.00        7.44


     Writing all to output data dir ./iceIh/iceIh.save/ :
     XML data file, charge density, pseudopotentials, collected wavefunctions

     init_run     :      4.58s CPU      4.69s WALL (       1 calls)
     electrons    :    128.54s CPU    130.16s WALL (       1 calls)
     forces       :      0.57s CPU      0.59s WALL (       1 calls)
     stress       :      8.59s CPU      8.62s WALL (       1 calls)

     Called by init_run:
     wfcinit      :      4.14s CPU      4.20s WALL (       1 calls)
     potinit      :      0.03s CPU      0.03s WALL (       1 calls)
     hinit0       :      0.33s CPU      0.35s WALL (       1 calls)

     Called by electrons:
     c_bands      :    114.93s CPU    116.31s WALL (      12 calls)
     sum_band     :     13.38s CPU     13.54s WALL (      12 calls)
     v_of_rho     :      0.15s CPU      0.15s WALL (      13 calls)
     newd         :      0.03s CPU      0.03s WALL (      13 calls)
     mix_rho      :      0.03s CPU      0.03s WALL (      12 calls)

     Called by c_bands:
     init_us_2    :      1.64s CPU      1.69s WALL (    3105 calls)
     cegterg      :    111.40s CPU    112.31s WALL (    1380 calls)

     Called by *egterg:
     cdiaghg      :      9.20s CPU      9.23s WALL (    5306 calls)
     h_psi        :     87.31s CPU     88.16s WALL (    5421 calls)
     s_psi        :      3.46s CPU      3.49s WALL (    5421 calls)
     g_psi        :      0.31s CPU      0.31s WALL (    3926 calls)

     Called by h_psi:
     h_psi:calbec :      5.53s CPU      5.58s WALL (    5421 calls)
     vloc_psi     :     77.60s CPU     78.35s WALL (    5421 calls)
     add_vuspsi   :      3.57s CPU      3.60s WALL (    5421 calls)

     General routines
     calbec       :      7.27s CPU      7.35s WALL (    7376 calls)
     fft          :      0.40s CPU      0.40s WALL (     151 calls)
     ffts         :      0.01s CPU      0.01s WALL (      12 calls)
     fftw         :     80.60s CPU     81.37s WALL (  339500 calls)

     Parallel routines

     PWSCF        :   2m24.89s CPU   2m29.76s WALL


   This run was terminated on:  20:21:12  24Mar2026            

=------------------------------------------------------------------------------=
   JOB DONE.
=------------------------------------------------------------------------------=
