
     Program PWSCF v.7.3.1 starts on 24Mar2026 at 20:26:42 

     This program is part of the open-source Quantum ESPRESSO suite
     for quantum simulation of materials; please cite
         "P. Giannozzi et al., J. Phys.:Condens. Matter 21 395502 (2009);
         "P. Giannozzi et al., J. Phys.:Condens. Matter 29 465901 (2017);
         "P. Giannozzi et al., J. Chem. Phys. 152 154105 (2020);
          URL http://www.quantum-espresso.org", 
     in publications or presentations arising from this work. More details at
     http://www.quantum-espresso.org/quote

     Parallel version (MPI), running on   128 processors

     MPI processes distributed on     1 nodes
     237310 MiB available memory on the printing compute node when the environment starts

     Waiting for input...
     Reading input from standard input

     Current dimensions of program PWSCF are:
     Max number of different atomic species (ntypx) = 10
     Max number of k-points (npk) =  40000
     Max angular momentum in pseudopotentials (lmaxx) =  4
     Found identity + ( -0.5000  0.5000 -0.0000) symmetry
     This is a supercell, fractional translations are disabled

     K-points division:     npool     =       4
     R & G space division:  proc/nbgrp/npool/nimage =      32
     Subspace diagonalization in iterative solution of the eigenvalue problem:
     a serial algorithm will be used


     Parallelization info
     --------------------
     sticks:   dense  smooth     PW     G-vecs:    dense   smooth      PW
     Min         111     111     30                 6181     6181     894
     Max         112     112     31                 6186     6186     899
     Sum        3575    3575    985               197865   197865   28675

     Using Slab Decomposition



     bravais-lattice index     =            8
     lattice parameter (alat)  =       8.4735  a.u.
     unit-cell volume          =    1715.3340 (a.u.)^3
     number of atoms/cell      =           24
     number of atomic types    =            2
     number of electrons       =        64.00
     number of Kohn-Sham states=           32
     kinetic-energy cutoff     =      90.0000  Ry
     charge density cutoff     =     360.0000  Ry
     scf convergence threshold =      1.0E-07
     mixing beta               =       0.7000
     number of iterations used =            8  plain     mixing
     Exchange-correlation=  SLA  PW   PBE  PBE
                           (   1   4   3   4   0   0   0)

     celldm(1)=   8.473516  celldm(2)=   1.732119  celldm(3)=   1.627721
     celldm(4)=   0.000000  celldm(5)=   0.000000  celldm(6)=   0.000000

     crystal axes: (cart. coord. in units of alat)
               a(1) = (   1.000000   0.000000   0.000000 )  
               a(2) = (   0.000000   1.732119   0.000000 )  
               a(3) = (   0.000000   0.000000   1.627721 )  

     reciprocal axes: (cart. coord. in units 2 pi/alat)
               b(1) = (  1.000000  0.000000  0.000000 )  
               b(2) = (  0.000000  0.577328  0.000000 )  
               b(3) = (  0.000000  0.000000  0.614356 )  


     PseudoPot. # 1 for H  read from file:
     ./H.pbe-van_ak.UPF
     MD5 check sum: 077eb6d537518a38cb46c6de387227b7
     Pseudo is Ultrasoft, Zval =  1.0
     Generated by new atomic code, or converted to UPF format
     Using radial grid of  615 points,  1 beta functions with: 
                l(1) =   0
     Q(r) pseudized with  8 coefficients,  rinner =    0.800

     PseudoPot. # 2 for O  read from file:
     ./O.pbe-van_ak.UPF
     MD5 check sum: 78c19812648e8988a0fe644b0f25305e
     Pseudo is Ultrasoft, Zval =  6.0
     Generated by new atomic code, or converted to UPF format
     Using radial grid of  737 points,  4 beta functions with: 
                l(1) =   0
                l(2) =   0
                l(3) =   1
                l(4) =   1
     Q(r) pseudized with  8 coefficients,  rinner =    0.800   0.800   0.800


     atomic species   valence    mass     pseudopotential
     H                 1.00     1.00800     H ( 1.00)
     O                 6.00    16.00000     O ( 1.00)

      2 Sym. Ops. (no inversion) found



   Cartesian axes

     site n.     atom                  positions (alat units)
         1        O      tau(   1) = (   0.0000000   1.1484866   0.0984416  )
         2        O      tau(   2) = (   0.0000000   0.5836324   0.9123021  )
         3        O      tau(   3) = (   0.5000000   0.2824271   0.0984415  )
         4        O      tau(   4) = (   0.5000000   1.4496920   0.9123021  )
         5        O      tau(   5) = (   0.5000000   1.4402433   1.5187349  )
         6        O      tau(   6) = (   0.5000000   0.2918758   0.7048744  )
         7        O      tau(   7) = (   0.0000000   0.5741838   1.5187348  )
         8        O      tau(   8) = (   0.0000000   1.1579353   0.7048743  )
         9        H      tau(   9) = (   0.0000000   1.1487418   0.3216685  )
        10        H      tau(  10) = (   0.0000000   0.5833772   1.1355290  )
        11        H      tau(  11) = (   0.5000000   0.2826823   0.3216685  )
        12        H      tau(  12) = (   0.5000000   1.4494367   1.1355290  )
        13        H      tau(  13) = (   0.0000000   0.9333594   0.0315143  )
        14        H      tau(  14) = (   0.0000000   0.7987597   0.8453748  )
        15        H      tau(  15) = (   0.5000000   0.0672998   0.0315143  )
        16        H      tau(  16) = (   0.5000000   1.6648192   0.8453748  )
        17        H      tau(  17) = (   0.6820699   1.3365463   1.6012691  )
        18        H      tau(  18) = (   0.3179301   0.3955728   0.7874086  )
        19        H      tau(  19) = (   0.6820699   0.3955728   0.7874086  )
        20        H      tau(  20) = (   0.3179301   1.3365463   1.6012691  )
        21        H      tau(  21) = (   0.1820699   0.4704867   1.6012691  )
        22        H      tau(  22) = (   0.8179301   1.2616323   0.7874086  )
        23        H      tau(  23) = (   0.1820699   1.2616323   0.7874086  )
        24        H      tau(  24) = (   0.8179301   0.4704867   1.6012691  )

     number of k points=   460

     Number of k-points >= 100: set verbosity='high' to print them.

     Dense  grid:   197865 G-vectors     FFT dimensions: (  54,  90,  90)

     Estimated max dynamical RAM per process >      51.79 MB

     Estimated total dynamical RAM >       6.33 GB

     Initial potential from superposition of free atoms

     starting charge      63.9998, renormalised to      64.0000
     Starting wfcs are   48 randomized atomic wfcs

     total cpu time spent up to now is        5.0 secs

     per-process dynamical memory:    59.3 Mb

     Self-consistent Calculation

     iteration #  1     ecut=    90.00 Ry     beta= 0.70
     Davidson diagonalization with overlap
     ethr =  1.00E-02,  avg # of iterations =  2.0

     total cpu time spent up to now is       14.1 secs

     total energy              =    -274.93908962 Ry
     estimated scf accuracy    <       2.59291817 Ry

     iteration #  2     ecut=    90.00 Ry     beta= 0.70
     Davidson diagonalization with overlap
     ethr =  4.05E-03,  avg # of iterations =  3.0

     total cpu time spent up to now is       26.3 secs

     total energy              =    -275.75742329 Ry
     estimated scf accuracy    <       1.58326420 Ry

     iteration #  3     ecut=    90.00 Ry     beta= 0.70
     Davidson diagonalization with overlap
     ethr =  2.47E-03,  avg # of iterations =  2.0

     total cpu time spent up to now is       35.5 secs

     total energy              =    -275.96617934 Ry
     estimated scf accuracy    <       0.06321541 Ry

     iteration #  4     ecut=    90.00 Ry     beta= 0.70
     Davidson diagonalization with overlap
     ethr =  9.88E-05,  avg # of iterations =  4.0

     total cpu time spent up to now is       49.2 secs

     total energy              =    -276.01506462 Ry
     estimated scf accuracy    <       0.07649405 Ry

     iteration #  5     ecut=    90.00 Ry     beta= 0.70
     Davidson diagonalization with overlap
     ethr =  9.88E-05,  avg # of iterations =  2.0

     total cpu time spent up to now is       57.3 secs

     total energy              =    -276.01821061 Ry
     estimated scf accuracy    <       0.01189292 Ry

     iteration #  6     ecut=    90.00 Ry     beta= 0.70
     Davidson diagonalization with overlap
     ethr =  1.86E-05,  avg # of iterations =  2.0

     total cpu time spent up to now is       65.5 secs

     total energy              =    -276.01725683 Ry
     estimated scf accuracy    <       0.00435860 Ry

     iteration #  7     ecut=    90.00 Ry     beta= 0.70
     Davidson diagonalization with overlap
     ethr =  6.81E-06,  avg # of iterations =  3.0

     total cpu time spent up to now is       76.5 secs

     total energy              =    -276.01908239 Ry
     estimated scf accuracy    <       0.00013491 Ry

     iteration #  8     ecut=    90.00 Ry     beta= 0.70
     Davidson diagonalization with overlap
     ethr =  2.11E-07,  avg # of iterations =  4.1

     total cpu time spent up to now is       90.1 secs

     total energy              =    -276.01895958 Ry
     estimated scf accuracy    <       0.00119854 Ry

     iteration #  9     ecut=    90.00 Ry     beta= 0.70
     Davidson diagonalization with overlap
     ethr =  2.11E-07,  avg # of iterations =  2.6

     total cpu time spent up to now is      100.7 secs

     total energy              =    -276.01882133 Ry
     estimated scf accuracy    <       0.00044534 Ry

     iteration # 10     ecut=    90.00 Ry     beta= 0.70
     Davidson diagonalization with overlap
     ethr =  2.11E-07,  avg # of iterations =  3.0

     total cpu time spent up to now is      112.8 secs

     total energy              =    -276.01889066 Ry
     estimated scf accuracy    <       0.00001305 Ry

     iteration # 11     ecut=    90.00 Ry     beta= 0.70
     Davidson diagonalization with overlap
     ethr =  2.04E-08,  avg # of iterations =  3.0

     total cpu time spent up to now is      124.1 secs

     total energy              =    -276.01889596 Ry
     estimated scf accuracy    <       0.00000056 Ry

     iteration # 12     ecut=    90.00 Ry     beta= 0.70
     Davidson diagonalization with overlap
     ethr =  8.80E-10,  avg # of iterations =  4.0

     total cpu time spent up to now is      136.4 secs

     total energy              =    -276.01889635 Ry
     estimated scf accuracy    <       0.00000015 Ry

     iteration # 13     ecut=    90.00 Ry     beta= 0.70
     Davidson diagonalization with overlap
     ethr =  2.32E-10,  avg # of iterations =  2.0

     total cpu time spent up to now is      145.3 secs

     total energy              =    -276.01889625 Ry
     estimated scf accuracy    <       0.00000026 Ry

     iteration # 14     ecut=    90.00 Ry     beta= 0.70
     Davidson diagonalization with overlap
     ethr =  2.32E-10,  avg # of iterations =  2.0

     total cpu time spent up to now is      155.1 secs

     End of self-consistent calculation

     Number of k-points >= 100: set verbosity='high' to print the bands.

     highest occupied level (ev):    -3.4150

!    total energy              =    -276.01889628 Ry
     estimated scf accuracy    <       0.00000001 Ry

     The total energy is the sum of the following terms:
     one-electron contribution =    -235.60675981 Ry
     hartree contribution      =     138.48104560 Ry
     xc contribution           =     -67.63721777 Ry
     ewald contribution        =    -111.25596429 Ry

     convergence has been achieved in  14 iterations

     Forces acting on atoms (cartesian axes, Ry/au):

     atom    1 type  2   force =     0.00000000   -0.00115906   -0.00812541
     atom    2 type  2   force =     0.00000000    0.00115907   -0.00812577
     atom    3 type  2   force =     0.00000000   -0.00116086   -0.00812567
     atom    4 type  2   force =     0.00000000    0.00116074   -0.00812561
     atom    5 type  2   force =     0.00000000    0.00078489    0.00895934
     atom    6 type  2   force =     0.00000000   -0.00078470    0.00895950
     atom    7 type  2   force =     0.00000000    0.00078341    0.00896008
     atom    8 type  2   force =     0.00000000   -0.00078343    0.00895991
     atom    9 type  1   force =     0.00000000   -0.00126725    0.00492727
     atom   10 type  1   force =     0.00000000    0.00126722    0.00492742
     atom   11 type  1   force =     0.00000000   -0.00126742    0.00492798
     atom   12 type  1   force =     0.00000000    0.00126741    0.00492809
     atom   13 type  1   force =     0.00000000    0.00781136    0.00124204
     atom   14 type  1   force =     0.00000000   -0.00781120    0.00124195
     atom   15 type  1   force =     0.00000000    0.00781046    0.00124184
     atom   16 type  1   force =     0.00000000   -0.00781031    0.00124180
     atom   17 type  1   force =    -0.00975497   -0.00285937   -0.00350180
     atom   18 type  1   force =     0.00975497    0.00285930   -0.00350182
     atom   19 type  1   force =    -0.00975497    0.00285930   -0.00350182
     atom   20 type  1   force =     0.00975497   -0.00285937   -0.00350180
     atom   21 type  1   force =    -0.00975502   -0.00285941   -0.00350185
     atom   22 type  1   force =     0.00975506    0.00285933   -0.00350191
     atom   23 type  1   force =    -0.00975506    0.00285933   -0.00350191
     atom   24 type  1   force =     0.00975502   -0.00285941   -0.00350185

     Total force =     0.043262     Total SCF correction =     0.000073


     Computing stress (Cartesian axis) and pressure

          total   stress  (Ry/bohr**3)                   (kbar)     P=      -14.01
  -0.00015184   0.00000000   0.00000000          -22.34        0.00        0.00
   0.00000000  -0.00010142   0.00000000            0.00      -14.92        0.00
   0.00000000   0.00000000  -0.00003253            0.00        0.00       -4.79


     Writing all to output data dir ./iceIh/iceIh.save/ :
     XML data file, charge density, pseudopotentials, collected wavefunctions

     init_run     :      4.55s CPU      4.68s WALL (       1 calls)
     electrons    :    148.16s CPU    150.15s WALL (       1 calls)
     forces       :      0.58s CPU      0.59s WALL (       1 calls)
     stress       :      8.78s CPU      8.79s WALL (       1 calls)

     Called by init_run:
     wfcinit      :      4.12s CPU      4.20s WALL (       1 calls)
     potinit      :      0.03s CPU      0.04s WALL (       1 calls)
     hinit0       :      0.33s CPU      0.33s WALL (       1 calls)

     Called by electrons:
     c_bands      :    132.21s CPU    134.01s WALL (      14 calls)
     sum_band     :     15.67s CPU     15.82s WALL (      14 calls)
     v_of_rho     :      0.16s CPU      0.17s WALL (      15 calls)
     newd         :      0.03s CPU      0.04s WALL (      15 calls)
     mix_rho      :      0.04s CPU      0.04s WALL (      14 calls)

     Called by c_bands:
     init_us_2    :      1.96s CPU      2.02s WALL (    3565 calls)
     cegterg      :    127.78s CPU    128.79s WALL (    1610 calls)

     Called by *egterg:
     cdiaghg      :     10.49s CPU     10.54s WALL (    6106 calls)
     h_psi        :     99.45s CPU    100.42s WALL (    6221 calls)
     s_psi        :      3.98s CPU      4.00s WALL (    6221 calls)
     g_psi        :      0.36s CPU      0.36s WALL (    4496 calls)

     Called by h_psi:
     h_psi:calbec :      6.53s CPU      6.57s WALL (    6221 calls)
     vloc_psi     :     87.98s CPU     88.86s WALL (    6221 calls)
     add_vuspsi   :      4.18s CPU      4.20s WALL (    6221 calls)

     General routines
     calbec       :      8.44s CPU      8.51s WALL (    8406 calls)
     fft          :      0.40s CPU      0.41s WALL (     173 calls)
     ffts         :      0.01s CPU      0.01s WALL (      14 calls)
     fftw         :     91.56s CPU     92.43s WALL (  388442 calls)

     Parallel routines

     PWSCF        :   2m44.52s CPU   2m53.87s WALL


   This run was terminated on:  20:29:35  24Mar2026            

=------------------------------------------------------------------------------=
   JOB DONE.
=------------------------------------------------------------------------------=
