
     Program PWSCF v.7.3.1 starts on 21Mar2026 at  5: 9:34 

     This program is part of the open-source Quantum ESPRESSO suite
     for quantum simulation of materials; please cite
         "P. Giannozzi et al., J. Phys.:Condens. Matter 21 395502 (2009);
         "P. Giannozzi et al., J. Phys.:Condens. Matter 29 465901 (2017);
         "P. Giannozzi et al., J. Chem. Phys. 152 154105 (2020);
          URL http://www.quantum-espresso.org", 
     in publications or presentations arising from this work. More details at
     http://www.quantum-espresso.org/quote

     Parallel version (MPI), running on   128 processors

     MPI processes distributed on     1 nodes
     236968 MiB available memory on the printing compute node when the environment starts

     Waiting for input...
     Reading input from standard input

     Current dimensions of program PWSCF are:
     Max number of different atomic species (ntypx) = 10
     Max number of k-points (npk) =  40000
     Max angular momentum in pseudopotentials (lmaxx) =  4
     Found identity + ( -0.5000 -0.5000  0.0000) symmetry
     This is a supercell, fractional translations are disabled

     K-points division:     npool     =       4
     R & G space division:  proc/nbgrp/npool/nimage =      32
     Subspace diagonalization in iterative solution of the eigenvalue problem:
     a serial algorithm will be used


     Parallelization info
     --------------------
     sticks:   dense  smooth     PW     G-vecs:    dense   smooth      PW
     Min         111     111     30                 6181     6181     894
     Max         112     112     31                 6186     6186     899
     Sum        3575    3575    985               197865   197865   28675

     Using Slab Decomposition



     bravais-lattice index     =            8
     lattice parameter (alat)  =       8.4735  a.u.
     unit-cell volume          =    1715.3340 (a.u.)^3
     number of atoms/cell      =           24
     number of atomic types    =            2
     number of electrons       =        64.00
     number of Kohn-Sham states=           32
     kinetic-energy cutoff     =      90.0000  Ry
     charge density cutoff     =     360.0000  Ry
     scf convergence threshold =      1.0E-07
     mixing beta               =       0.7000
     number of iterations used =            8  plain     mixing
     Exchange-correlation=  SLA  PW   PBE  PBE
                           (   1   4   3   4   0   0   0)

     celldm(1)=   8.473516  celldm(2)=   1.732119  celldm(3)=   1.627721
     celldm(4)=   0.000000  celldm(5)=   0.000000  celldm(6)=   0.000000

     crystal axes: (cart. coord. in units of alat)
               a(1) = (   1.000000   0.000000   0.000000 )  
               a(2) = (   0.000000   1.732119   0.000000 )  
               a(3) = (   0.000000   0.000000   1.627721 )  

     reciprocal axes: (cart. coord. in units 2 pi/alat)
               b(1) = (  1.000000  0.000000  0.000000 )  
               b(2) = (  0.000000  0.577328  0.000000 )  
               b(3) = (  0.000000  0.000000  0.614356 )  


     PseudoPot. # 1 for H  read from file:
     ./H.pbe-van_ak.UPF
     MD5 check sum: 077eb6d537518a38cb46c6de387227b7
     Pseudo is Ultrasoft, Zval =  1.0
     Generated by new atomic code, or converted to UPF format
     Using radial grid of  615 points,  1 beta functions with: 
                l(1) =   0
     Q(r) pseudized with  8 coefficients,  rinner =    0.800

     PseudoPot. # 2 for O  read from file:
     ./O.pbe-van_ak.UPF
     MD5 check sum: 78c19812648e8988a0fe644b0f25305e
     Pseudo is Ultrasoft, Zval =  6.0
     Generated by new atomic code, or converted to UPF format
     Using radial grid of  737 points,  4 beta functions with: 
                l(1) =   0
                l(2) =   0
                l(3) =   1
                l(4) =   1
     Q(r) pseudized with  8 coefficients,  rinner =    0.800   0.800   0.800


     atomic species   valence    mass     pseudopotential
     H                 1.00     1.00800     H ( 1.00)
     O                 6.00    16.00000     O ( 1.00)

      2 Sym. Ops. (no inversion) found



   Cartesian axes

     site n.     atom                  positions (alat units)
         1        O      tau(   1) = (   0.0000000   1.1515127   0.1027092  )
         2        O      tau(   2) = (   0.0000000   0.5806063   0.9165697  )
         3        O      tau(   3) = (   0.5000000   0.2854532   0.1027092  )
         4        O      tau(   4) = (   0.5000000   1.4466659   0.9165697  )
         5        O      tau(   5) = (   0.5000000   1.4298643   1.5250118  )
         6        O      tau(   6) = (   0.5000000   0.3022548   0.7111513  )
         7        O      tau(   7) = (   0.0000000   0.5638048   1.5250118  )
         8        O      tau(   8) = (   0.0000000   1.1683143   0.7111513  )
         9        H      tau(   9) = (   0.0000000   1.1494343   0.3195216  )
        10        H      tau(  10) = (   0.0000000   0.5826848   1.1333822  )
        11        H      tau(  11) = (   0.5000000   0.2833747   0.3195216  )
        12        H      tau(  12) = (   0.5000000   1.4487443   1.1333822  )
        13        H      tau(  13) = (   0.0000000   0.9289355   0.0297873  )
        14        H      tau(  14) = (   0.0000000   0.8031836   0.8436478  )
        15        H      tau(  15) = (   0.5000000   0.0628759   0.0297873  )
        16        H      tau(  16) = (   0.5000000   1.6692431   0.8436478  )
        17        H      tau(  17) = (   0.6766000   1.3420459   1.5979337  )
        18        H      tau(  18) = (   0.3234000   0.3900732   0.7840732  )
        19        H      tau(  19) = (   0.6766000   0.3900732   0.7840732  )
        20        H      tau(  20) = (   0.3234000   1.3420459   1.5979337  )
        21        H      tau(  21) = (   0.1766000   0.4759863   1.5979337  )
        22        H      tau(  22) = (   0.8234000   1.2561327   0.7840732  )
        23        H      tau(  23) = (   0.1766000   1.2561327   0.7840732  )
        24        H      tau(  24) = (   0.8234000   0.4759863   1.5979337  )

     number of k points=   460

     Number of k-points >= 100: set verbosity='high' to print them.

     Dense  grid:   197865 G-vectors     FFT dimensions: (  54,  90,  90)

     Estimated max dynamical RAM per process >      51.79 MB

     Estimated total dynamical RAM >       6.33 GB

     Initial potential from superposition of free atoms

     starting charge      63.9998, renormalised to      64.0000
     Starting wfcs are   48 randomized atomic wfcs

     total cpu time spent up to now is        5.0 secs

     per-process dynamical memory:    59.3 Mb

     Self-consistent Calculation

     iteration #  1     ecut=    90.00 Ry     beta= 0.70
     Davidson diagonalization with overlap
     ethr =  1.00E-02,  avg # of iterations =  2.0

     total cpu time spent up to now is       14.2 secs

     total energy              =    -274.79019985 Ry
     estimated scf accuracy    <       2.82491391 Ry

     iteration #  2     ecut=    90.00 Ry     beta= 0.70
     Davidson diagonalization with overlap
     ethr =  4.41E-03,  avg # of iterations =  3.0

     total cpu time spent up to now is       26.2 secs

     total energy              =    -275.68025449 Ry
     estimated scf accuracy    <       1.62948349 Ry

     iteration #  3     ecut=    90.00 Ry     beta= 0.70
     Davidson diagonalization with overlap
     ethr =  2.55E-03,  avg # of iterations =  2.0

     total cpu time spent up to now is       35.3 secs

     total energy              =    -275.89719569 Ry
     estimated scf accuracy    <       0.06203774 Ry

     iteration #  4     ecut=    90.00 Ry     beta= 0.70
     Davidson diagonalization with overlap
     ethr =  9.69E-05,  avg # of iterations =  4.1

     total cpu time spent up to now is       49.2 secs

     total energy              =    -275.94580804 Ry
     estimated scf accuracy    <       0.07863043 Ry

     iteration #  5     ecut=    90.00 Ry     beta= 0.70
     Davidson diagonalization with overlap
     ethr =  9.69E-05,  avg # of iterations =  2.0

     total cpu time spent up to now is       57.2 secs

     total energy              =    -275.94870673 Ry
     estimated scf accuracy    <       0.01228854 Ry

     iteration #  6     ecut=    90.00 Ry     beta= 0.70
     Davidson diagonalization with overlap
     ethr =  1.92E-05,  avg # of iterations =  2.0

     total cpu time spent up to now is       65.9 secs

     total energy              =    -275.94861087 Ry
     estimated scf accuracy    <       0.00311625 Ry

     iteration #  7     ecut=    90.00 Ry     beta= 0.70
     Davidson diagonalization with overlap
     ethr =  4.87E-06,  avg # of iterations =  2.1

     total cpu time spent up to now is       76.1 secs

     total energy              =    -275.94994323 Ry
     estimated scf accuracy    <       0.00019358 Ry

     iteration #  8     ecut=    90.00 Ry     beta= 0.70
     Davidson diagonalization with overlap
     ethr =  3.02E-07,  avg # of iterations =  3.1

     total cpu time spent up to now is       87.5 secs

     total energy              =    -275.94987374 Ry
     estimated scf accuracy    <       0.00062254 Ry

     iteration #  9     ecut=    90.00 Ry     beta= 0.70
     Davidson diagonalization with overlap
     ethr =  3.02E-07,  avg # of iterations =  1.0

     total cpu time spent up to now is       94.3 secs

     total energy              =    -275.94979564 Ry
     estimated scf accuracy    <       0.00030073 Ry

     iteration # 10     ecut=    90.00 Ry     beta= 0.70
     Davidson diagonalization with overlap
     ethr =  3.02E-07,  avg # of iterations =  2.0

     total cpu time spent up to now is      103.5 secs

     total energy              =    -275.94979904 Ry
     estimated scf accuracy    <       0.00005501 Ry

     iteration # 11     ecut=    90.00 Ry     beta= 0.70
     Davidson diagonalization with overlap
     ethr =  8.59E-08,  avg # of iterations =  2.0

     total cpu time spent up to now is      112.7 secs

     total energy              =    -275.94980699 Ry
     estimated scf accuracy    <       0.00000326 Ry

     iteration # 12     ecut=    90.00 Ry     beta= 0.70
     Davidson diagonalization with overlap
     ethr =  5.09E-09,  avg # of iterations =  4.9

     total cpu time spent up to now is      126.7 secs

     total energy              =    -275.94980987 Ry
     estimated scf accuracy    <       0.00000204 Ry

     iteration # 13     ecut=    90.00 Ry     beta= 0.70
     Davidson diagonalization with overlap
     ethr =  3.19E-09,  avg # of iterations =  1.0

     total cpu time spent up to now is      133.5 secs

     total energy              =    -275.94980917 Ry
     estimated scf accuracy    <       0.00000124 Ry

     iteration # 14     ecut=    90.00 Ry     beta= 0.70
     Davidson diagonalization with overlap
     ethr =  1.94E-09,  avg # of iterations =  3.0

     total cpu time spent up to now is      144.2 secs

     End of self-consistent calculation

     Number of k-points >= 100: set verbosity='high' to print the bands.

     highest occupied level (ev):    -3.3784

!    total energy              =    -275.94980951 Ry
     estimated scf accuracy    <       0.00000009 Ry

     The total energy is the sum of the following terms:
     one-electron contribution =    -239.44842652 Ry
     hartree contribution      =     140.22753638 Ry
     xc contribution           =     -68.01455377 Ry
     ewald contribution        =    -108.71436560 Ry

     convergence has been achieved in  14 iterations

     Forces acting on atoms (cartesian axes, Ry/au):

     atom    1 type  2   force =     0.00000000   -0.05380572   -0.06883367
     atom    2 type  2   force =     0.00000000    0.05380671   -0.06883182
     atom    3 type  2   force =     0.00000000   -0.05380511   -0.06883421
     atom    4 type  2   force =     0.00000000    0.05380669   -0.06883191
     atom    5 type  2   force =     0.00000000    0.11891146   -0.08180804
     atom    6 type  2   force =     0.00000000   -0.11891173   -0.08180818
     atom    7 type  2   force =     0.00000000    0.11891120   -0.08180791
     atom    8 type  2   force =     0.00000000   -0.11891169   -0.08180818
     atom    9 type  1   force =     0.00000000   -0.00330815    0.04315852
     atom   10 type  1   force =     0.00000000    0.00330796    0.04315819
     atom   11 type  1   force =     0.00000000   -0.00330812    0.04315832
     atom   12 type  1   force =     0.00000000    0.00330796    0.04315809
     atom   13 type  1   force =     0.00000000    0.05504365    0.02036084
     atom   14 type  1   force =     0.00000000   -0.05504384    0.02036086
     atom   15 type  1   force =     0.00000000    0.05504381    0.02036086
     atom   16 type  1   force =     0.00000000   -0.05504388    0.02036086
     atom   17 type  1   force =     0.07784270   -0.05842094    0.04356093
     atom   18 type  1   force =    -0.07784262    0.05842063    0.04356091
     atom   19 type  1   force =     0.07784262    0.05842063    0.04356091
     atom   20 type  1   force =    -0.07784270   -0.05842094    0.04356093
     atom   21 type  1   force =     0.07784267   -0.05842094    0.04356094
     atom   22 type  1   force =    -0.07784262    0.05842065    0.04356092
     atom   23 type  1   force =     0.07784262    0.05842065    0.04356092
     atom   24 type  1   force =    -0.07784267   -0.05842094    0.04356094

     Total force =     0.475494     Total SCF correction =     0.000389


     Computing stress (Cartesian axis) and pressure

          total   stress  (Ry/bohr**3)                   (kbar)     P=       33.09
   0.00054152   0.00000000   0.00000000           79.66        0.00        0.00
   0.00000000  -0.00014736  -0.00000000            0.00      -21.68       -0.00
   0.00000000  -0.00000000   0.00028076            0.00       -0.00       41.30


     Writing all to output data dir ./iceIh/iceIh.save/ :
     XML data file, charge density, pseudopotentials, collected wavefunctions

     init_run     :      4.70s CPU      4.80s WALL (       1 calls)
     electrons    :    137.12s CPU    139.28s WALL (       1 calls)
     forces       :      0.58s CPU      0.59s WALL (       1 calls)
     stress       :      8.78s CPU      8.80s WALL (       1 calls)

     Called by init_run:
     wfcinit      :      4.26s CPU      4.32s WALL (       1 calls)
     potinit      :      0.03s CPU      0.04s WALL (       1 calls)
     hinit0       :      0.33s CPU      0.33s WALL (       1 calls)

     Called by electrons:
     c_bands      :    121.13s CPU    123.04s WALL (      14 calls)
     sum_band     :     15.73s CPU     15.88s WALL (      14 calls)
     v_of_rho     :      0.17s CPU      0.18s WALL (      15 calls)
     newd         :      0.03s CPU      0.04s WALL (      15 calls)
     mix_rho      :      0.04s CPU      0.04s WALL (      14 calls)

     Called by c_bands:
     init_us_2    :      2.00s CPU      2.06s WALL (    3565 calls)
     cegterg      :    116.60s CPU    117.75s WALL (    1610 calls)

     Called by *egterg:
     cdiaghg      :      9.39s CPU      9.43s WALL (    5578 calls)
     h_psi        :     91.94s CPU     93.01s WALL (    5693 calls)
     s_psi        :      3.63s CPU      3.66s WALL (    5693 calls)
     g_psi        :      0.32s CPU      0.32s WALL (    3968 calls)

     Called by h_psi:
     h_psi:calbec :      5.86s CPU      5.92s WALL (    5693 calls)
     vloc_psi     :     81.51s CPU     82.48s WALL (    5693 calls)
     add_vuspsi   :      3.82s CPU      3.86s WALL (    5693 calls)

     General routines
     calbec       :      7.77s CPU      7.84s WALL (    7878 calls)
     fft          :      0.40s CPU      0.41s WALL (     173 calls)
     ffts         :      0.01s CPU      0.01s WALL (      14 calls)
     fftw         :     85.71s CPU     86.67s WALL (  363864 calls)

     Parallel routines

     PWSCF        :   2m33.89s CPU   2m39.55s WALL


   This run was terminated on:   5:12:14  21Mar2026            

=------------------------------------------------------------------------------=
   JOB DONE.
=------------------------------------------------------------------------------=
