
     Program PWSCF v.7.3.1 starts on 24Mar2026 at 20:29:38 

     This program is part of the open-source Quantum ESPRESSO suite
     for quantum simulation of materials; please cite
         "P. Giannozzi et al., J. Phys.:Condens. Matter 21 395502 (2009);
         "P. Giannozzi et al., J. Phys.:Condens. Matter 29 465901 (2017);
         "P. Giannozzi et al., J. Chem. Phys. 152 154105 (2020);
          URL http://www.quantum-espresso.org", 
     in publications or presentations arising from this work. More details at
     http://www.quantum-espresso.org/quote

     Parallel version (MPI), running on   128 processors

     MPI processes distributed on     1 nodes
     237239 MiB available memory on the printing compute node when the environment starts

     Waiting for input...
     Reading input from standard input

     Current dimensions of program PWSCF are:
     Max number of different atomic species (ntypx) = 10
     Max number of k-points (npk) =  40000
     Max angular momentum in pseudopotentials (lmaxx) =  4
     Found identity + ( -0.5000  0.5000 -0.0000) symmetry
     This is a supercell, fractional translations are disabled

     K-points division:     npool     =       4
     R & G space division:  proc/nbgrp/npool/nimage =      32
     Subspace diagonalization in iterative solution of the eigenvalue problem:
     a serial algorithm will be used


     Parallelization info
     --------------------
     sticks:   dense  smooth     PW     G-vecs:    dense   smooth      PW
     Min         111     111     30                 6217     6217     898
     Max         112     112     32                 6224     6224     903
     Sum        3579    3579    989               199109   199109   28835

     Using Slab Decomposition



     bravais-lattice index     =            8
     lattice parameter (alat)  =       8.4905  a.u.
     unit-cell volume          =    1725.6881 (a.u.)^3
     number of atoms/cell      =           24
     number of atomic types    =            2
     number of electrons       =        64.00
     number of Kohn-Sham states=           32
     kinetic-energy cutoff     =      90.0000  Ry
     charge density cutoff     =     360.0000  Ry
     scf convergence threshold =      1.0E-07
     mixing beta               =       0.7000
     number of iterations used =            8  plain     mixing
     Exchange-correlation=  SLA  PW   PBE  PBE
                           (   1   4   3   4   0   0   0)

     celldm(1)=   8.490531  celldm(2)=   1.732119  celldm(3)=   1.627721
     celldm(4)=   0.000000  celldm(5)=   0.000000  celldm(6)=   0.000000

     crystal axes: (cart. coord. in units of alat)
               a(1) = (   1.000000   0.000000   0.000000 )  
               a(2) = (   0.000000   1.732119   0.000000 )  
               a(3) = (   0.000000   0.000000   1.627721 )  

     reciprocal axes: (cart. coord. in units 2 pi/alat)
               b(1) = (  1.000000  0.000000  0.000000 )  
               b(2) = (  0.000000  0.577328  0.000000 )  
               b(3) = (  0.000000  0.000000  0.614356 )  


     PseudoPot. # 1 for H  read from file:
     ./H.pbe-van_ak.UPF
     MD5 check sum: 077eb6d537518a38cb46c6de387227b7
     Pseudo is Ultrasoft, Zval =  1.0
     Generated by new atomic code, or converted to UPF format
     Using radial grid of  615 points,  1 beta functions with: 
                l(1) =   0
     Q(r) pseudized with  8 coefficients,  rinner =    0.800

     PseudoPot. # 2 for O  read from file:
     ./O.pbe-van_ak.UPF
     MD5 check sum: 78c19812648e8988a0fe644b0f25305e
     Pseudo is Ultrasoft, Zval =  6.0
     Generated by new atomic code, or converted to UPF format
     Using radial grid of  737 points,  4 beta functions with: 
                l(1) =   0
                l(2) =   0
                l(3) =   1
                l(4) =   1
     Q(r) pseudized with  8 coefficients,  rinner =    0.800   0.800   0.800


     atomic species   valence    mass     pseudopotential
     H                 1.00     1.00800     H ( 1.00)
     O                 6.00    16.00000     O ( 1.00)

      2 Sym. Ops. (no inversion) found



   Cartesian axes

     site n.     atom                  positions (alat units)
         1        O      tau(   1) = (   0.0000000   1.1484866   0.0984416  )
         2        O      tau(   2) = (   0.0000000   0.5836324   0.9123021  )
         3        O      tau(   3) = (   0.5000000   0.2824271   0.0984415  )
         4        O      tau(   4) = (   0.5000000   1.4496920   0.9123021  )
         5        O      tau(   5) = (   0.5000000   1.4402433   1.5187349  )
         6        O      tau(   6) = (   0.5000000   0.2918758   0.7048744  )
         7        O      tau(   7) = (   0.0000000   0.5741838   1.5187348  )
         8        O      tau(   8) = (   0.0000000   1.1579353   0.7048743  )
         9        H      tau(   9) = (   0.0000000   1.1487418   0.3216685  )
        10        H      tau(  10) = (   0.0000000   0.5833772   1.1355290  )
        11        H      tau(  11) = (   0.5000000   0.2826823   0.3216685  )
        12        H      tau(  12) = (   0.5000000   1.4494367   1.1355290  )
        13        H      tau(  13) = (   0.0000000   0.9333594   0.0315143  )
        14        H      tau(  14) = (   0.0000000   0.7987597   0.8453748  )
        15        H      tau(  15) = (   0.5000000   0.0672998   0.0315143  )
        16        H      tau(  16) = (   0.5000000   1.6648192   0.8453748  )
        17        H      tau(  17) = (   0.6820699   1.3365463   1.6012691  )
        18        H      tau(  18) = (   0.3179301   0.3955728   0.7874086  )
        19        H      tau(  19) = (   0.6820699   0.3955728   0.7874086  )
        20        H      tau(  20) = (   0.3179301   1.3365463   1.6012691  )
        21        H      tau(  21) = (   0.1820699   0.4704867   1.6012691  )
        22        H      tau(  22) = (   0.8179301   1.2616323   0.7874086  )
        23        H      tau(  23) = (   0.1820699   1.2616323   0.7874086  )
        24        H      tau(  24) = (   0.8179301   0.4704867   1.6012691  )

     number of k points=   460

     Number of k-points >= 100: set verbosity='high' to print them.

     Dense  grid:   199109 G-vectors     FFT dimensions: (  54,  90,  90)

     Estimated max dynamical RAM per process >      52.11 MB

     Estimated total dynamical RAM >       6.37 GB

     Initial potential from superposition of free atoms

     starting charge      63.9998, renormalised to      64.0000
     Starting wfcs are   48 randomized atomic wfcs

     total cpu time spent up to now is        5.0 secs

     per-process dynamical memory:    59.8 Mb

     Self-consistent Calculation

     iteration #  1     ecut=    90.00 Ry     beta= 0.70
     Davidson diagonalization with overlap
     ethr =  1.00E-02,  avg # of iterations =  2.0

     total cpu time spent up to now is       14.2 secs

     total energy              =    -274.93911696 Ry
     estimated scf accuracy    <       2.58571548 Ry

     iteration #  2     ecut=    90.00 Ry     beta= 0.70
     Davidson diagonalization with overlap
     ethr =  4.04E-03,  avg # of iterations =  3.0

     total cpu time spent up to now is       26.5 secs

     total energy              =    -275.75421763 Ry
     estimated scf accuracy    <       1.59481836 Ry

     iteration #  3     ecut=    90.00 Ry     beta= 0.70
     Davidson diagonalization with overlap
     ethr =  2.49E-03,  avg # of iterations =  2.0

     total cpu time spent up to now is       35.7 secs

     total energy              =    -275.96468490 Ry
     estimated scf accuracy    <       0.06383993 Ry

     iteration #  4     ecut=    90.00 Ry     beta= 0.70
     Davidson diagonalization with overlap
     ethr =  9.97E-05,  avg # of iterations =  4.0

     total cpu time spent up to now is       49.5 secs

     total energy              =    -276.01409729 Ry
     estimated scf accuracy    <       0.07727666 Ry

     iteration #  5     ecut=    90.00 Ry     beta= 0.70
     Davidson diagonalization with overlap
     ethr =  9.97E-05,  avg # of iterations =  2.0

     total cpu time spent up to now is       57.5 secs

     total energy              =    -276.01726124 Ry
     estimated scf accuracy    <       0.01199231 Ry

     iteration #  6     ecut=    90.00 Ry     beta= 0.70
     Davidson diagonalization with overlap
     ethr =  1.87E-05,  avg # of iterations =  2.0

     total cpu time spent up to now is       65.8 secs

     total energy              =    -276.01630613 Ry
     estimated scf accuracy    <       0.00433560 Ry

     iteration #  7     ecut=    90.00 Ry     beta= 0.70
     Davidson diagonalization with overlap
     ethr =  6.77E-06,  avg # of iterations =  3.0

     total cpu time spent up to now is       76.8 secs

     total energy              =    -276.01818742 Ry
     estimated scf accuracy    <       0.00017112 Ry

     iteration #  8     ecut=    90.00 Ry     beta= 0.70
     Davidson diagonalization with overlap
     ethr =  2.67E-07,  avg # of iterations =  4.1

     total cpu time spent up to now is       90.1 secs

     total energy              =    -276.01803971 Ry
     estimated scf accuracy    <       0.00126594 Ry

     iteration #  9     ecut=    90.00 Ry     beta= 0.70
     Davidson diagonalization with overlap
     ethr =  2.67E-07,  avg # of iterations =  2.4

     total cpu time spent up to now is      100.5 secs

     total energy              =    -276.01790027 Ry
     estimated scf accuracy    <       0.00046309 Ry

     iteration # 10     ecut=    90.00 Ry     beta= 0.70
     Davidson diagonalization with overlap
     ethr =  2.67E-07,  avg # of iterations =  3.0

     total cpu time spent up to now is      112.2 secs

     total energy              =    -276.01796833 Ry
     estimated scf accuracy    <       0.00001886 Ry

     iteration # 11     ecut=    90.00 Ry     beta= 0.70
     Davidson diagonalization with overlap
     ethr =  2.95E-08,  avg # of iterations =  3.0

     total cpu time spent up to now is      123.5 secs

     total energy              =    -276.01797633 Ry
     estimated scf accuracy    <       0.00000014 Ry

     iteration # 12     ecut=    90.00 Ry     beta= 0.70
     Davidson diagonalization with overlap
     ethr =  2.19E-10,  avg # of iterations =  5.8

     total cpu time spent up to now is      139.8 secs

     End of self-consistent calculation

     Number of k-points >= 100: set verbosity='high' to print the bands.

     highest occupied level (ev):    -3.4392

!    total energy              =    -276.01797663 Ry
     estimated scf accuracy    <       0.00000007 Ry

     The total energy is the sum of the following terms:
     one-electron contribution =    -236.02023242 Ry
     hartree contribution      =     138.63666082 Ry
     xc contribution           =     -67.60139858 Ry
     ewald contribution        =    -111.03300645 Ry

     convergence has been achieved in  12 iterations

     Forces acting on atoms (cartesian axes, Ry/au):

     atom    1 type  2   force =     0.00000000   -0.00363217   -0.00614505
     atom    2 type  2   force =     0.00000000    0.00363179   -0.00614529
     atom    3 type  2   force =     0.00000000   -0.00363316   -0.00614428
     atom    4 type  2   force =     0.00000000    0.00363323   -0.00614418
     atom    5 type  2   force =     0.00000000   -0.00167134    0.01095937
     atom    6 type  2   force =     0.00000000    0.00167136    0.01095929
     atom    7 type  2   force =     0.00000000   -0.00167094    0.01095913
     atom    8 type  2   force =     0.00000000    0.00167078    0.01095910
     atom    9 type  1   force =     0.00000000   -0.00142298    0.00186985
     atom   10 type  1   force =     0.00000000    0.00142301    0.00186978
     atom   11 type  1   force =     0.00000000   -0.00142307    0.00187009
     atom   12 type  1   force =     0.00000000    0.00142313    0.00187017
     atom   13 type  1   force =     0.00000000    0.01048523    0.00226897
     atom   14 type  1   force =     0.00000000   -0.01048518    0.00226895
     atom   15 type  1   force =     0.00000000    0.01048514    0.00226905
     atom   16 type  1   force =     0.00000000   -0.01048488    0.00226898
     atom   17 type  1   force =    -0.01220158   -0.00162308   -0.00447673
     atom   18 type  1   force =     0.01220163    0.00162307   -0.00447677
     atom   19 type  1   force =    -0.01220163    0.00162307   -0.00447677
     atom   20 type  1   force =     0.01220158   -0.00162308   -0.00447673
     atom   21 type  1   force =    -0.01220145   -0.00162307   -0.00447673
     atom   22 type  1   force =     0.01220141    0.00162310   -0.00447674
     atom   23 type  1   force =    -0.01220141    0.00162310   -0.00447674
     atom   24 type  1   force =     0.01220145   -0.00162307   -0.00447673

     Total force =     0.050500     Total SCF correction =     0.000334


     Computing stress (Cartesian axis) and pressure

          total   stress  (Ry/bohr**3)                   (kbar)     P=      -17.70
  -0.00017631   0.00000000   0.00000000          -25.94        0.00        0.00
   0.00000000  -0.00012578   0.00000000            0.00      -18.50        0.00
   0.00000000   0.00000000  -0.00005891            0.00        0.00       -8.67


     Writing all to output data dir ./iceIh/iceIh.save/ :
     XML data file, charge density, pseudopotentials, collected wavefunctions

     init_run     :      4.61s CPU      4.73s WALL (       1 calls)
     electrons    :    132.94s CPU    134.83s WALL (       1 calls)
     forces       :      0.58s CPU      0.59s WALL (       1 calls)
     stress       :      8.87s CPU      8.89s WALL (       1 calls)

     Called by init_run:
     wfcinit      :      4.19s CPU      4.24s WALL (       1 calls)
     potinit      :      0.01s CPU      0.03s WALL (       1 calls)
     hinit0       :      0.33s CPU      0.35s WALL (       1 calls)

     Called by electrons:
     c_bands      :    119.21s CPU    120.86s WALL (      12 calls)
     sum_band     :     13.52s CPU     13.67s WALL (      12 calls)
     v_of_rho     :      0.14s CPU      0.16s WALL (      13 calls)
     newd         :      0.03s CPU      0.03s WALL (      13 calls)
     mix_rho      :      0.03s CPU      0.03s WALL (      12 calls)

     Called by c_bands:
     init_us_2    :      1.69s CPU      1.75s WALL (    3105 calls)
     cegterg      :    115.56s CPU    116.50s WALL (    1380 calls)

     Called by *egterg:
     cdiaghg      :      9.85s CPU      9.89s WALL (    5650 calls)
     h_psi        :     89.67s CPU     90.57s WALL (    5765 calls)
     s_psi        :      3.61s CPU      3.62s WALL (    5765 calls)
     g_psi        :      0.33s CPU      0.33s WALL (    4270 calls)

     Called by h_psi:
     h_psi:calbec :      5.96s CPU      6.00s WALL (    5765 calls)
     vloc_psi     :     79.24s CPU     80.05s WALL (    5765 calls)
     add_vuspsi   :      3.81s CPU      3.83s WALL (    5765 calls)

     General routines
     calbec       :      7.69s CPU      7.77s WALL (    7720 calls)
     fft          :      0.39s CPU      0.40s WALL (     151 calls)
     ffts         :      0.01s CPU      0.01s WALL (      12 calls)
     fftw         :     81.99s CPU     82.81s WALL (  345330 calls)

     Parallel routines

     PWSCF        :   2m29.54s CPU   2m34.87s WALL


   This run was terminated on:  20:32:12  24Mar2026            

=------------------------------------------------------------------------------=
   JOB DONE.
=------------------------------------------------------------------------------=
