
     Program PWSCF v.7.3.1 starts on 13Feb2026 at 17:34:41 

     This program is part of the open-source Quantum ESPRESSO suite
     for quantum simulation of materials; please cite
         "P. Giannozzi et al., J. Phys.:Condens. Matter 21 395502 (2009);
         "P. Giannozzi et al., J. Phys.:Condens. Matter 29 465901 (2017);
         "P. Giannozzi et al., J. Chem. Phys. 152 154105 (2020);
          URL http://www.quantum-espresso.org", 
     in publications or presentations arising from this work. More details at
     http://www.quantum-espresso.org/quote

     Parallel version (MPI), running on   128 processors

     MPI processes distributed on     1 nodes
     242210 MiB available memory on the printing compute node when the environment starts

     Waiting for input...
     Reading input from standard input
     Message from routine read_cards :
     DEPRECATED: no units specified in ATOMIC_POSITIONS card
     Message from routine read_cards :
     ATOMIC_POSITIONS: units set to alat

     Current dimensions of program PWSCF are:
     Max number of different atomic species (ntypx) = 10
     Max number of k-points (npk) =  40000
     Max angular momentum in pseudopotentials (lmaxx) =  4

     K-points division:     npool     =       8
     R & G space division:  proc/nbgrp/npool/nimage =      16
     Subspace diagonalization in iterative solution of the eigenvalue problem:
     a serial algorithm will be used


     Parallelization info
     --------------------
     sticks:   dense  smooth     PW     G-vecs:    dense   smooth      PW
     Min         146     146     42                 4704     4704     722
     Max         147     147     43                 4709     4709     725
     Sum        2347    2347    673                75313    75313   11575

     Using Slab Decomposition



     bravais-lattice index     =            5
     lattice parameter (alat)  =       7.3080  a.u.
     unit-cell volume          =     275.9808 (a.u.)^3
     number of atoms/cell      =            2
     number of atomic types    =            1
     number of electrons       =         8.00
     number of Kohn-Sham states=            4
     kinetic-energy cutoff     =     160.0000  Ry
     charge density cutoff     =     640.0000  Ry
     scf convergence threshold =      1.0E-07
     mixing beta               =       0.7000
     number of iterations used =            8  plain     mixing
     Exchange-correlation=  SLA  PW   PBE  PBE
                           (   1   4   3   4   0   0   0)

     celldm(1)=   7.307990  celldm(2)=   0.000000  celldm(3)=   0.000000
     celldm(4)=   0.500000  celldm(5)=   0.000000  celldm(6)=   0.000000

     crystal axes: (cart. coord. in units of alat)
               a(1) = (   0.500000  -0.288675   0.816497 )  
               a(2) = (   0.000000   0.577350   0.816497 )  
               a(3) = (  -0.500000  -0.288675   0.816497 )  

     reciprocal axes: (cart. coord. in units 2 pi/alat)
               b(1) = (  1.000000 -0.577350  0.408248 )  
               b(2) = (  0.000000  1.154701  0.408248 )  
               b(3) = ( -1.000000 -0.577350  0.408248 )  


     PseudoPot. # 1 for Si read from file:
     ./Si.pbe-n-van.UPF
     MD5 check sum: 8a97496598b7338af554a5de8957bfee
     Pseudo is Ultrasoft + core correction, Zval =  4.0
     Generated by new atomic code, or converted to UPF format
     Using radial grid of  899 points,  6 beta functions with: 
                l(1) =   0
                l(2) =   0
                l(3) =   1
                l(4) =   1
                l(5) =   2
                l(6) =   2
     Q(r) pseudized with  8 coefficients,  rinner =    0.900   0.900   0.900
                                                       0.900   0.900

     atomic species   valence    mass     pseudopotential
     Si                4.00    28.08600     Si( 1.00)

      2 Sym. Ops. (no inversion) found



   Cartesian axes

     site n.     atom                  positions (alat units)
         1        Si     tau(   1) = (   0.0000000   0.0000000   0.0000000  )
         2        Si     tau(   2) = (   0.5000000   0.5000000   0.5000000  )

     number of k points=   150

     Number of k-points >= 100: set verbosity='high' to print them.

     Dense  grid:    75313 G-vectors     FFT dimensions: (  60,  60,  60)

     Estimated max dynamical RAM per process >       7.77 MB

     Estimated total dynamical RAM >     865.56 MB

     Initial potential from superposition of free atoms

     starting charge       7.9987, renormalised to       8.0000
     Starting wfcs are    8 randomized atomic wfcs

     total cpu time spent up to now is        9.3 secs

     per-process dynamical memory:    13.3 Mb

     Self-consistent Calculation

     iteration #  1     ecut=   160.00 Ry     beta= 0.70
     Davidson diagonalization with overlap
     ethr =  1.00E-02,  avg # of iterations =  2.0

     Threshold (ethr) on eigenvalues was too large:
     Diagonalizing with lowered threshold

     Davidson diagonalization with overlap
     ethr =  5.03E-04,  avg # of iterations =  1.6

     total cpu time spent up to now is        9.8 secs

     total energy              =     -19.08180400 Ry
     estimated scf accuracy    <       0.04471845 Ry

     iteration #  2     ecut=   160.00 Ry     beta= 0.70
     Davidson diagonalization with overlap
     ethr =  5.59E-04,  avg # of iterations =  1.4

     total cpu time spent up to now is       10.0 secs

     total energy              =     -19.08541447 Ry
     estimated scf accuracy    <       0.00153425 Ry

     iteration #  3     ecut=   160.00 Ry     beta= 0.70
     Davidson diagonalization with overlap
     ethr =  1.92E-05,  avg # of iterations =  3.5

     total cpu time spent up to now is       10.2 secs

     total energy              =     -19.08612034 Ry
     estimated scf accuracy    <       0.00011200 Ry

     iteration #  4     ecut=   160.00 Ry     beta= 0.70
     Davidson diagonalization with overlap
     ethr =  1.40E-06,  avg # of iterations =  4.5

     total cpu time spent up to now is       10.5 secs

     total energy              =     -19.08619132 Ry
     estimated scf accuracy    <       0.00000903 Ry

     iteration #  5     ecut=   160.00 Ry     beta= 0.70
     Davidson diagonalization with overlap
     ethr =  1.13E-07,  avg # of iterations =  4.6

     total cpu time spent up to now is       10.8 secs

     total energy              =     -19.08619813 Ry
     estimated scf accuracy    <       0.00000019 Ry

     iteration #  6     ecut=   160.00 Ry     beta= 0.70
     Davidson diagonalization with overlap
     ethr =  2.40E-09,  avg # of iterations =  6.7

     total cpu time spent up to now is       11.2 secs

     End of self-consistent calculation

     Number of k-points >= 100: set verbosity='high' to print the bands.

     highest occupied level (ev):     7.4458

!    total energy              =     -19.08619862 Ry
     estimated scf accuracy    <       0.00000001 Ry

     The total energy is the sum of the following terms:
     one-electron contribution =       5.61424779 Ry
     hartree contribution      =       0.82248283 Ry
     xc contribution           =      -8.49965484 Ry
     ewald contribution        =     -17.02327440 Ry

     convergence has been achieved in   6 iterations

     Writing all to output data dir ./si-scf-van/silicon.save/ :
     XML data file, charge density, pseudopotentials, collected wavefunctions

     init_run     :      0.62s CPU      0.78s WALL (       1 calls)
     electrons    :      1.69s CPU      1.89s WALL (       1 calls)

     Called by init_run:
     wfcinit      :      0.10s CPU      0.15s WALL (       1 calls)
     potinit      :      0.01s CPU      0.03s WALL (       1 calls)
     hinit0       :      0.46s CPU      0.53s WALL (       1 calls)

     Called by electrons:
     c_bands      :      1.30s CPU      1.41s WALL (       7 calls)
     sum_band     :      0.20s CPU      0.22s WALL (       7 calls)
     v_of_rho     :      0.08s CPU      0.09s WALL (       7 calls)
     newd         :      0.04s CPU      0.04s WALL (       7 calls)
     mix_rho      :      0.02s CPU      0.03s WALL (       7 calls)

     Called by c_bands:
     init_us_2    :      0.07s CPU      0.08s WALL (     285 calls)
     cegterg      :      0.99s CPU      1.05s WALL (     133 calls)

     Called by *egterg:
     cdiaghg      :      0.03s CPU      0.03s WALL (     586 calls)
     h_psi        :      0.91s CPU      1.00s WALL (     624 calls)
     s_psi        :      0.04s CPU      0.04s WALL (     624 calls)
     g_psi        :      0.00s CPU      0.00s WALL (     472 calls)

     Called by h_psi:
     h_psi:calbec :      0.06s CPU      0.11s WALL (     624 calls)
     vloc_psi     :      0.79s CPU      0.84s WALL (     624 calls)
     add_vuspsi   :      0.04s CPU      0.05s WALL (     624 calls)

     General routines
     calbec       :      0.08s CPU      0.12s WALL (     757 calls)
     fft          :      0.45s CPU      0.53s WALL (      78 calls)
     ffts         :      0.01s CPU      0.01s WALL (       7 calls)
     fftw         :      0.78s CPU      0.83s WALL (    4504 calls)

     Parallel routines

     PWSCF        :      2.86s CPU     11.84s WALL


   This run was terminated on:  17:34:53  13Feb2026            

=------------------------------------------------------------------------------=
   JOB DONE.
=------------------------------------------------------------------------------=
