
     Program PWSCF v.7.3.1 starts on  5Mar2026 at 15:24:50 

     This program is part of the open-source Quantum ESPRESSO suite
     for quantum simulation of materials; please cite
         "P. Giannozzi et al., J. Phys.:Condens. Matter 21 395502 (2009);
         "P. Giannozzi et al., J. Phys.:Condens. Matter 29 465901 (2017);
         "P. Giannozzi et al., J. Chem. Phys. 152 154105 (2020);
          URL http://www.quantum-espresso.org", 
     in publications or presentations arising from this work. More details at
     http://www.quantum-espresso.org/quote

     Parallel version (MPI), running on   128 processors

     MPI processes distributed on     1 nodes
     245673 MiB available memory on the printing compute node when the environment starts

     Waiting for input...
     Reading input from standard input

     Current dimensions of program PWSCF are:
     Max number of different atomic species (ntypx) = 10
     Max number of k-points (npk) =  40000
     Max angular momentum in pseudopotentials (lmaxx) =  4

     K-points division:     npool     =       8
     R & G space division:  proc/nbgrp/npool/nimage =      16
     Subspace diagonalization in iterative solution of the eigenvalue problem:
     a serial algorithm will be used


     Parallelization info
     --------------------
     sticks:   dense  smooth     PW     G-vecs:    dense   smooth      PW
     Min         146     146     42                 4704     4704     722
     Max         147     147     43                 4709     4709     725
     Sum        2347    2347    673                75313    75313   11575

     Using Slab Decomposition



     bravais-lattice index     =            5
     lattice parameter (alat)  =       7.3080  a.u.
     unit-cell volume          =     275.9808 (a.u.)^3
     number of atoms/cell      =            2
     number of atomic types    =            1
     number of electrons       =         8.00
     number of Kohn-Sham states=            4
     kinetic-energy cutoff     =     160.0000  Ry
     charge density cutoff     =     640.0000  Ry
     scf convergence threshold =      1.0E-07
     mixing beta               =       0.7000
     number of iterations used =            8  plain     mixing
     Exchange-correlation=  SLA  PW   PBE  PBE
                           (   1   4   3   4   0   0   0)

     celldm(1)=   7.307990  celldm(2)=   0.000000  celldm(3)=   0.000000
     celldm(4)=   0.500000  celldm(5)=   0.000000  celldm(6)=   0.000000

     crystal axes: (cart. coord. in units of alat)
               a(1) = (   0.500000  -0.288675   0.816497 )  
               a(2) = (   0.000000   0.577350   0.816497 )  
               a(3) = (  -0.500000  -0.288675   0.816497 )  

     reciprocal axes: (cart. coord. in units 2 pi/alat)
               b(1) = (  1.000000 -0.577350  0.408248 )  
               b(2) = (  0.000000  1.154701  0.408248 )  
               b(3) = ( -1.000000 -0.577350  0.408248 )  


     PseudoPot. # 1 for Si read from file:
     ./Si.pbe-n-van.UPF
     MD5 check sum: 8a97496598b7338af554a5de8957bfee
     Pseudo is Ultrasoft + core correction, Zval =  4.0
     Generated by new atomic code, or converted to UPF format
     Using radial grid of  899 points,  6 beta functions with: 
                l(1) =   0
                l(2) =   0
                l(3) =   1
                l(4) =   1
                l(5) =   2
                l(6) =   2
     Q(r) pseudized with  8 coefficients,  rinner =    0.900   0.900   0.900
                                                       0.900   0.900

     atomic species   valence    mass     pseudopotential
     Si                4.00    28.08600     Si( 1.00)

     12 Sym. Ops., with inversion, found ( 6 have fractional translation)



   Cartesian axes

     site n.     atom                  positions (alat units)
         1        Si     tau(   1) = (   0.0000000   0.0000000   0.0000000  )
         2        Si     tau(   2) = (   0.0000000  -0.0000000   0.6123724  )

     number of k points=    65
                       cart. coord. in units 2pi/alat
        k(    1) = (   0.0000000   0.0000000   0.0000000), wk =   0.0039062
        k(    2) = (  -0.1250000  -0.0721688   0.0510310), wk =   0.0234375
        k(    3) = (  -0.2500000  -0.1443376   0.1020621), wk =   0.0234375
        k(    4) = (  -0.3750000  -0.2165064   0.1530931), wk =   0.0234375
        k(    5) = (   0.5000000   0.2886751  -0.2041241), wk =   0.0117188
        k(    6) = (  -0.1250000   0.0721688   0.1020621), wk =   0.0234375
        k(    7) = (  -0.2500000   0.0000000   0.1530931), wk =   0.0468750
        k(    8) = (  -0.3750000  -0.0721688   0.2041241), wk =   0.0468750
        k(    9) = (   0.5000000   0.4330127  -0.1530931), wk =   0.0468750
        k(   10) = (   0.3750000   0.3608439  -0.1020621), wk =   0.0468750
        k(   11) = (   0.2500000   0.2886751  -0.0510310), wk =   0.0468750
        k(   12) = (   0.1250000   0.2165064   0.0000000), wk =   0.0234375
        k(   13) = (  -0.2500000   0.1443376   0.2041241), wk =   0.0234375
        k(   14) = (  -0.3750000   0.0721688   0.2551552), wk =   0.0468750
        k(   15) = (   0.5000000   0.5773503  -0.1020621), wk =   0.0468750
        k(   16) = (   0.3750000   0.5051815  -0.0510310), wk =   0.0468750
        k(   17) = (   0.2500000   0.4330127   0.0000000), wk =   0.0234375
        k(   18) = (  -0.3750000   0.2165064   0.3061862), wk =   0.0234375
        k(   19) = (   0.5000000   0.7216878  -0.0510310), wk =   0.0468750
        k(   20) = (   0.3750000   0.6495191   0.0000000), wk =   0.0234375
        k(   21) = (   0.5000000  -0.2886751  -0.4082483), wk =   0.0117188
        k(   22) = (   0.0000000   0.0000000   0.1530931), wk =   0.0078125
        k(   23) = (  -0.1250000  -0.0721688   0.2041241), wk =   0.0234375
        k(   24) = (  -0.2500000  -0.1443376   0.2551552), wk =   0.0234375
        k(   25) = (   0.6250000   0.3608439  -0.1020621), wk =   0.0234375
        k(   26) = (   0.5000000   0.2886751  -0.0510310), wk =   0.0234375
        k(   27) = (   0.3750000   0.2165064   0.0000000), wk =   0.0234375
        k(   28) = (   0.2500000   0.1443376   0.0510310), wk =   0.0234375
        k(   29) = (  -0.1250000   0.0721688   0.2551552), wk =   0.0234375
        k(   30) = (  -0.2500000   0.0000000   0.3061862), wk =   0.0468750
        k(   31) = (   0.6250000   0.5051815  -0.0510310), wk =   0.0468750
        k(   32) = (   0.5000000   0.4330127   0.0000000), wk =   0.0468750
        k(   33) = (   0.3750000   0.3608439   0.0510310), wk =   0.0468750
        k(   34) = (   0.2500000   0.2886751   0.1020621), wk =   0.0468750
        k(   35) = (  -0.2500000   0.1443376   0.3572173), wk =   0.0234375
        k(   36) = (   0.6250000   0.6495191   0.0000000), wk =   0.0468750
        k(   37) = (   0.5000000   0.5773503   0.0510310), wk =   0.0468750
        k(   38) = (   0.3750000   0.5051815   0.1020621), wk =   0.0468750
        k(   39) = (   0.2500000   0.4330127   0.1530931), wk =   0.0468750
        k(   40) = (   0.6250000  -0.3608439  -0.3572173), wk =   0.0234375
        k(   41) = (   0.5000000  -0.4330127  -0.3061862), wk =   0.0468750
        k(   42) = (   0.3750000  -0.5051815  -0.2551552), wk =   0.0468750
        k(   43) = (   0.2500000  -0.5773503  -0.2041241), wk =   0.0234375
        k(   44) = (   0.5000000  -0.2886751  -0.2551552), wk =   0.0234375
        k(   45) = (   0.3750000  -0.3608439  -0.2041241), wk =   0.0468750
        k(   46) = (   0.3750000  -0.2165064  -0.1530931), wk =   0.0234375
        k(   47) = (   0.0000000   0.0000000   0.3061862), wk =   0.0078125
        k(   48) = (  -0.1250000  -0.0721688   0.3572173), wk =   0.0234375
        k(   49) = (   0.7500000   0.4330127   0.0000000), wk =   0.0234375
        k(   50) = (   0.6250000   0.3608439   0.0510310), wk =   0.0234375
        k(   51) = (   0.5000000   0.2886751   0.1020621), wk =   0.0234375
        k(   52) = (  -0.1250000   0.0721688   0.4082483), wk =   0.0234375
        k(   53) = (   0.7500000   0.5773503   0.0510310), wk =   0.0468750
        k(   54) = (   0.6250000   0.5051815   0.1020621), wk =   0.0468750
        k(   55) = (   0.5000000   0.4330127   0.1530931), wk =   0.0468750
        k(   56) = (   0.7500000  -0.4330127  -0.3061862), wk =   0.0234375
        k(   57) = (   0.6250000  -0.5051815  -0.2551552), wk =   0.0468750
        k(   58) = (   0.5000000  -0.5773503  -0.2041241), wk =   0.0234375
        k(   59) = (   0.6250000  -0.3608439  -0.2041241), wk =   0.0234375
        k(   60) = (   0.0000000  -0.0000000   0.4592793), wk =   0.0078125
        k(   61) = (   0.8750000   0.5051815   0.1020621), wk =   0.0234375
        k(   62) = (   0.7500000   0.4330127   0.1530931), wk =   0.0234375
        k(   63) = (   0.8750000  -0.5051815  -0.2551552), wk =   0.0234375
        k(   64) = (   0.7500000  -0.5773503  -0.2041241), wk =   0.0234375
        k(   65) = (   0.0000000   0.0000000  -0.6123724), wk =   0.0039062

     Dense  grid:    75313 G-vectors     FFT dimensions: (  60,  60,  60)

     Estimated max dynamical RAM per process >       7.41 MB

     Estimated total dynamical RAM >     819.54 MB

     Initial potential from superposition of free atoms

     starting charge       7.9987, renormalised to       8.0000
     Starting wfcs are    8 randomized atomic wfcs

     total cpu time spent up to now is        7.9 secs

     per-process dynamical memory:    13.1 Mb

     Self-consistent Calculation

     iteration #  1     ecut=   160.00 Ry     beta= 0.70
     Davidson diagonalization with overlap
     ethr =  1.00E-02,  avg # of iterations =  2.0

     Threshold (ethr) on eigenvalues was too large:
     Diagonalizing with lowered threshold

     Davidson diagonalization with overlap
     ethr =  6.24E-04,  avg # of iterations =  1.0

     total cpu time spent up to now is        8.9 secs

     total energy              =     -19.19076301 Ry
     estimated scf accuracy    <       0.05358648 Ry

     iteration #  2     ecut=   160.00 Ry     beta= 0.70
     Davidson diagonalization with overlap
     ethr =  6.70E-04,  avg # of iterations =  1.0

     total cpu time spent up to now is        9.0 secs

     total energy              =     -19.19268380 Ry
     estimated scf accuracy    <       0.00248786 Ry

     iteration #  3     ecut=   160.00 Ry     beta= 0.70
     Davidson diagonalization with overlap
     ethr =  3.11E-05,  avg # of iterations =  2.0

     total cpu time spent up to now is        9.1 secs

     total energy              =     -19.19303742 Ry
     estimated scf accuracy    <       0.00004165 Ry

     iteration #  4     ecut=   160.00 Ry     beta= 0.70
     Davidson diagonalization with overlap
     ethr =  5.21E-07,  avg # of iterations =  6.0

     total cpu time spent up to now is        9.2 secs

     total energy              =     -19.19311102 Ry
     estimated scf accuracy    <       0.00000011 Ry

     iteration #  5     ecut=   160.00 Ry     beta= 0.70
     Davidson diagonalization with overlap
     ethr =  1.40E-09,  avg # of iterations =  8.0

     total cpu time spent up to now is        9.4 secs

     End of self-consistent calculation

          k = 0.0000 0.0000 0.0000 (  9409 PWs)   bands (ev):

    -5.8379   5.9762   5.9762   5.9762

          k =-0.1250-0.0722 0.0510 (  9441 PWs)   bands (ev):

    -5.6375   4.3844   5.6934   5.6934

          k =-0.2500-0.1443 0.1021 (  9441 PWs)   bands (ev):

    -5.0533   2.0889   5.2302   5.2302

          k =-0.3750-0.2165 0.1531 (  9429 PWs)   bands (ev):

    -4.1792   0.1050   4.9069   4.9069

          k = 0.5000 0.2887-0.2041 (  9438 PWs)   bands (ev):

    -3.5603  -0.8926   4.7961   4.7961

          k =-0.1250 0.0722 0.1021 (  9437 PWs)   bands (ev):

    -5.5699   4.6226   5.1892   5.1892

          k =-0.2500 0.0000 0.1531 (  9442 PWs)   bands (ev):

    -5.1100   2.7691   4.6864   4.7501

          k =-0.3750-0.0722 0.2041 (  9422 PWs)   bands (ev):

    -4.3118   0.7477   4.1666   4.4212

          k = 0.5000 0.4330-0.1531 (  9438 PWs)   bands (ev):

    -3.4733  -0.6822   3.7296   4.4429

          k = 0.3750 0.3608-0.1021 (  9439 PWs)   bands (ev):

    -3.7104  -0.3212   3.5545   4.7321

          k = 0.2500 0.2887-0.0510 (  9439 PWs)   bands (ev):

    -4.6117   1.3938   3.7090   5.2136

          k = 0.1250 0.2165 0.0000 (  9453 PWs)   bands (ev):

    -5.3075   3.3004   4.3866   5.6857

          k =-0.2500 0.1443 0.2041 (  9453 PWs)   bands (ev):

    -4.7757   2.4560   4.1265   4.1265

          k =-0.3750 0.0722 0.2552 (  9407 PWs)   bands (ev):

    -4.0795   1.0594   3.3609   3.8133

          k = 0.5000 0.5774-0.1021 (  9433 PWs)   bands (ev):

    -3.1750  -0.3483   2.5133   3.8151

          k = 0.3750 0.5052-0.0510 (  9436 PWs)   bands (ev):

    -2.9780  -0.5981   2.0661   4.1263

          k = 0.2500 0.4330 0.0000 (  9425 PWs)   bands (ev):

    -3.8346   0.5355   2.3069   4.6725

          k =-0.3750 0.2165 0.3062 (  9409 PWs)   bands (ev):

    -3.4877   0.2625   3.4221   3.4221

          k = 0.5000 0.7217-0.0510 (  9434 PWs)   bands (ev):

    -2.6088  -0.8037   2.6174   3.3468

          k = 0.3750 0.6495 0.0000 (  9424 PWs)   bands (ev):

    -2.1859  -1.1887   1.7758   3.5991

          k = 0.5000-0.2887-0.4082 (  9384 PWs)   bands (ev):

    -1.7710  -1.7710   3.1805   3.1805

          k = 0.0000 0.0000 0.1531 (  9441 PWs)   bands (ev):

    -5.6375   4.3844   5.6934   5.6934

          k =-0.1250-0.0722 0.2041 (  9453 PWs)   bands (ev):

    -5.3075   3.3003   4.3867   5.6857

          k =-0.2500-0.1443 0.2552 (  9439 PWs)   bands (ev):

    -4.6117   1.3938   3.7090   5.2136

          k = 0.6250 0.3608-0.1021 (  9439 PWs)   bands (ev):

    -3.7104  -0.3212   3.5545   4.7321

          k = 0.5000 0.2887-0.0510 (  9438 PWs)   bands (ev):

    -3.4733  -0.6822   3.7296   4.4429

          k = 0.3750 0.2165 0.0000 (  9422 PWs)   bands (ev):

    -4.3118   0.7477   4.1666   4.4212

          k = 0.2500 0.1443 0.0510 (  9442 PWs)   bands (ev):

    -5.1100   2.7691   4.6864   4.7501

          k =-0.1250 0.0722 0.2552 (  9442 PWs)   bands (ev):

    -5.1100   2.7691   4.6864   4.7501

          k =-0.2500 0.0000 0.3062 (  9424 PWs)   bands (ev):

    -4.5335   1.7065   3.3236   4.5750

          k = 0.6250 0.5052-0.0510 (  9433 PWs)   bands (ev):

    -3.6644   0.1873   2.7196   4.0876

          k = 0.5000 0.4330 0.0000 (  9476 PWs)   bands (ev):

    -3.0306  -0.7317   2.5882   3.8646

          k = 0.3750 0.3608 0.0510 (  9433 PWs)   bands (ev):

    -3.6644   0.1873   2.7196   4.0876

          k = 0.2500 0.2887 0.1021 (  9424 PWs)   bands (ev):

    -4.5335   1.7065   3.3236   4.5750

          k =-0.2500 0.1443 0.3572 (  9407 PWs)   bands (ev):

    -4.0795   1.0594   3.3609   3.8133

          k = 0.6250 0.6495 0.0000 (  9408 PWs)   bands (ev):

    -3.2945   0.0473   2.6878   3.2795

          k = 0.5000 0.5774 0.0510 (  9436 PWs)   bands (ev):

    -2.4414  -0.9009   2.0081   3.0836

          k = 0.3750 0.5052 0.1021 (  9438 PWs)   bands (ev):

    -2.7849  -0.5431   1.8458   3.4502

          k = 0.2500 0.4330 0.1531 (  9433 PWs)   bands (ev):

    -3.6644   0.1873   2.7196   4.0876

          k = 0.6250-0.3608-0.3572 (  9434 PWs)   bands (ev):

    -2.6088  -0.8037   2.6174   3.3468

          k = 0.5000-0.4330-0.3062 (  9434 PWs)   bands (ev):

    -1.6973  -1.6973   2.6364   2.6364

          k = 0.3750-0.5052-0.2552 (  9436 PWs)   bands (ev):

    -2.4414  -0.9009   2.0081   3.0836

          k = 0.2500-0.5774-0.2041 (  9476 PWs)   bands (ev):

    -3.0306  -0.7317   2.5882   3.8646

          k = 0.5000-0.2887-0.2552 (  9434 PWs)   bands (ev):

    -2.6088  -0.8037   2.6174   3.3468

          k = 0.3750-0.3608-0.2041 (  9408 PWs)   bands (ev):

    -3.2945   0.0473   2.6878   3.2795

          k = 0.3750-0.2165-0.1531 (  9407 PWs)   bands (ev):

    -4.0795   1.0594   3.3609   3.8133

          k = 0.0000 0.0000 0.3062 (  9441 PWs)   bands (ev):

    -5.0533   2.0889   5.2302   5.2302

          k =-0.1250-0.0722 0.3572 (  9439 PWs)   bands (ev):

    -4.6117   1.3938   3.7090   5.2136

          k = 0.7500 0.4330 0.0000 (  9425 PWs)   bands (ev):

    -3.8346   0.5355   2.3069   4.6725

          k = 0.6250 0.3608 0.0510 (  9436 PWs)   bands (ev):

    -2.9780  -0.5981   2.0661   4.1263

          k = 0.5000 0.2887 0.1021 (  9433 PWs)   bands (ev):

    -3.1750  -0.3483   2.5133   3.8151

          k =-0.1250 0.0722 0.4082 (  9422 PWs)   bands (ev):

    -4.3118   0.7476   4.1666   4.4212

          k = 0.7500 0.5774 0.0510 (  9433 PWs)   bands (ev):

    -3.6644   0.1873   2.7196   4.0876

          k = 0.6250 0.5052 0.1021 (  9438 PWs)   bands (ev):

    -2.7849  -0.5431   1.8458   3.4502

          k = 0.5000 0.4330 0.1531 (  9436 PWs)   bands (ev):

    -2.4414  -0.9009   2.0081   3.0836

          k = 0.7500-0.4330-0.3062 (  9433 PWs)   bands (ev):

    -3.1750  -0.3484   2.5133   3.8151

          k = 0.6250-0.5052-0.2552 (  9436 PWs)   bands (ev):

    -2.4414  -0.9009   2.0081   3.0836

          k = 0.5000-0.5774-0.2041 (  9420 PWs)   bands (ev):

    -1.6166  -1.6166   2.2151   2.2151

          k = 0.6250-0.3608-0.2041 (  9424 PWs)   bands (ev):

    -2.1858  -1.1887   1.7758   3.5991

          k = 0.0000-0.0000 0.4593 (  9429 PWs)   bands (ev):

    -4.1792   0.1050   4.9069   4.9069

          k = 0.8750 0.5052 0.1021 (  9439 PWs)   bands (ev):

    -3.7104  -0.3212   3.5545   4.7321

          k = 0.7500 0.4330 0.1531 (  9436 PWs)   bands (ev):

    -2.9780  -0.5981   2.0661   4.1263

          k = 0.8750-0.5052-0.2552 (  9438 PWs)   bands (ev):

    -3.4733  -0.6822   3.7296   4.4429

          k = 0.7500-0.5774-0.2041 (  9476 PWs)   bands (ev):

    -3.0306  -0.7318   2.5882   3.8646

          k = 0.0000 0.0000-0.6124 (  9438 PWs)   bands (ev):

    -3.5603  -0.8926   4.7961   4.7961

     highest occupied level (ev):     5.9762

!    total energy              =     -19.19311245 Ry
     estimated scf accuracy    <       0.00000003 Ry

     The total energy is the sum of the following terms:
     one-electron contribution =       4.94899451 Ry
     hartree contribution      =       1.13594607 Ry
     xc contribution           =      -8.59914122 Ry
     ewald contribution        =     -16.67891181 Ry

     convergence has been achieved in   5 iterations

     Writing all to output data dir ./si-scf-van/silicon.save/ :
     XML data file, charge density, pseudopotentials, collected wavefunctions

     init_run     :      0.59s CPU      0.72s WALL (       1 calls)
     electrons    :      1.44s CPU      1.54s WALL (       1 calls)

     Called by init_run:
     wfcinit      :      0.05s CPU      0.09s WALL (       1 calls)
     potinit      :      0.02s CPU      0.02s WALL (       1 calls)
     hinit0       :      0.46s CPU      0.52s WALL (       1 calls)

     Called by electrons:
     c_bands      :      0.51s CPU      0.54s WALL (       6 calls)
     sum_band     :      0.11s CPU      0.12s WALL (       6 calls)
     v_of_rho     :      0.07s CPU      0.07s WALL (       6 calls)
     newd         :      0.03s CPU      0.03s WALL (       6 calls)
     mix_rho      :      0.01s CPU      0.01s WALL (       6 calls)

     Called by c_bands:
     init_us_2    :      0.03s CPU      0.03s WALL (     117 calls)
     cegterg      :      0.44s CPU      0.45s WALL (      54 calls)

     Called by *egterg:
     cdiaghg      :      0.01s CPU      0.01s WALL (     241 calls)
     h_psi        :      0.40s CPU      0.45s WALL (     259 calls)
     s_psi        :      0.02s CPU      0.02s WALL (     259 calls)
     g_psi        :      0.00s CPU      0.00s WALL (     196 calls)

     Called by h_psi:
     h_psi:calbec :      0.03s CPU      0.07s WALL (     259 calls)
     vloc_psi     :      0.35s CPU      0.37s WALL (     259 calls)
     add_vuspsi   :      0.02s CPU      0.02s WALL (     259 calls)

     General routines
     calbec       :      0.03s CPU      0.07s WALL (     313 calls)
     fft          :      0.44s CPU      0.50s WALL (      67 calls)
     ffts         :      0.00s CPU      0.00s WALL (       6 calls)
     fftw         :      0.35s CPU      0.37s WALL (    1966 calls)

     Parallel routines

     PWSCF        :      2.24s CPU      9.55s WALL


   This run was terminated on:  15:24:59   5Mar2026            

=------------------------------------------------------------------------------=
   JOB DONE.
=------------------------------------------------------------------------------=
