
     Program PWSCF v.7.3.1 starts on 26Mar2026 at 17:21:40 

     This program is part of the open-source Quantum ESPRESSO suite
     for quantum simulation of materials; please cite
         "P. Giannozzi et al., J. Phys.:Condens. Matter 21 395502 (2009);
         "P. Giannozzi et al., J. Phys.:Condens. Matter 29 465901 (2017);
         "P. Giannozzi et al., J. Chem. Phys. 152 154105 (2020);
          URL http://www.quantum-espresso.org", 
     in publications or presentations arising from this work. More details at
     http://www.quantum-espresso.org/quote

     Parallel version (MPI), running on   128 processors

     MPI processes distributed on     1 nodes
     236734 MiB available memory on the printing compute node when the environment starts

     Waiting for input...
     Reading input from standard input

     Current dimensions of program PWSCF are:
     Max number of different atomic species (ntypx) = 10
     Max number of k-points (npk) =  40000
     Max angular momentum in pseudopotentials (lmaxx) =  4

     IMPORTANT: XC functional enforced from input :
     Exchange-correlation= VDW-DF2
                           (   1   4  13   0   2   0   0)
     Any further DFT definition will be discarded
     Please, verify this is what you really want

     Found identity + ( -0.5000 -0.5000 -0.0000) symmetry
     This is a supercell, fractional translations are disabled

     K-points division:     npool     =       4
     R & G space division:  proc/nbgrp/npool/nimage =      32
     Subspace diagonalization in iterative solution of the eigenvalue problem:
     a serial algorithm will be used


     Parallelization info
     --------------------
     sticks:   dense  smooth     PW     G-vecs:    dense   smooth      PW
     Min         111     111     30                 6253     6253     900
     Max         112     112     31                 6260     6260     907
     Sum        3583    3583    989               200273   200273   28951

     Using Slab Decomposition



     bravais-lattice index     =            8
     lattice parameter (alat)  =       8.5075  a.u.
     unit-cell volume          =    1736.0838 (a.u.)^3
     number of atoms/cell      =           24
     number of atomic types    =            2
     number of electrons       =        64.00
     number of Kohn-Sham states=           32
     kinetic-energy cutoff     =      90.0000  Ry
     charge density cutoff     =     360.0000  Ry
     scf convergence threshold =      1.0E-07
     mixing beta               =       0.7000
     number of iterations used =            8  plain     mixing
     Exchange-correlation= VDW-DF2
                           (   1   4  13   0   2   0   0)

     celldm(1)=   8.507546  celldm(2)=   1.732119  celldm(3)=   1.627721
     celldm(4)=   0.000000  celldm(5)=   0.000000  celldm(6)=   0.000000

     crystal axes: (cart. coord. in units of alat)
               a(1) = (   1.000000   0.000000   0.000000 )  
               a(2) = (   0.000000   1.732119   0.000000 )  
               a(3) = (   0.000000   0.000000   1.627721 )  

     reciprocal axes: (cart. coord. in units 2 pi/alat)
               b(1) = (  1.000000  0.000000  0.000000 )  
               b(2) = (  0.000000  0.577328  0.000000 )  
               b(3) = (  0.000000  0.000000  0.614356 )  


     PseudoPot. # 1 for H  read from file:
     ./H.pbe-van_ak.UPF
     MD5 check sum: 077eb6d537518a38cb46c6de387227b7
     Pseudo is Ultrasoft, Zval =  1.0
     Generated by new atomic code, or converted to UPF format
     Using radial grid of  615 points,  1 beta functions with: 
                l(1) =   0
     Q(r) pseudized with  8 coefficients,  rinner =    0.800

     PseudoPot. # 2 for O  read from file:
     ./O.pbe-van_ak.UPF
     MD5 check sum: 78c19812648e8988a0fe644b0f25305e
     Pseudo is Ultrasoft, Zval =  6.0
     Generated by new atomic code, or converted to UPF format
     Using radial grid of  737 points,  4 beta functions with: 
                l(1) =   0
                l(2) =   0
                l(3) =   1
                l(4) =   1
     Q(r) pseudized with  8 coefficients,  rinner =    0.800   0.800   0.800


     atomic species   valence    mass     pseudopotential
     H                 1.00     1.00800     H ( 1.00)
     O                 6.00    16.00000     O ( 1.00)

      2 Sym. Ops. (no inversion) found



   Cartesian axes

     site n.     atom                  positions (alat units)
         1        O      tau(   1) = (   0.0000000   1.1505053   0.0983911  )
         2        O      tau(   2) = (   0.0000000   0.5816137   0.9122516  )
         3        O      tau(   3) = (   0.5000000   0.2844458   0.0983911  )
         4        O      tau(   4) = (   0.5000000   1.4476733   0.9122516  )
         5        O      tau(   5) = (   0.5000000   1.4413210   1.5245781  )
         6        O      tau(   6) = (   0.5000000   0.2907980   0.7107175  )
         7        O      tau(   7) = (   0.0000000   0.5752615   1.5245780  )
         8        O      tau(   8) = (   0.0000000   1.1568575   0.7107175  )
         9        H      tau(   9) = (   0.0000000   1.1476935   0.3199225  )
        10        H      tau(  10) = (   0.0000000   0.5844255   1.1337830  )
        11        H      tau(  11) = (   0.5000000   0.2816340   0.3199225  )
        12        H      tau(  12) = (   0.5000000   1.4504851   1.1337830  )
        13        H      tau(  13) = (   0.0000000   0.9389577   0.0320281  )
        14        H      tau(  14) = (   0.0000000   0.7931613   0.8458886  )
        15        H      tau(  15) = (   0.5000000   0.0728982   0.0320281  )
        16        H      tau(  16) = (   0.5000000   1.6592209   0.8458886  )
        17        H      tau(  17) = (   0.6777387   1.3318248   1.5989889  )
        18        H      tau(  18) = (   0.3222613   0.4002942   0.7851284  )
        19        H      tau(  19) = (   0.6777387   0.4002942   0.7851284  )
        20        H      tau(  20) = (   0.3222613   1.3318248   1.5989889  )
        21        H      tau(  21) = (   0.1777387   0.4657653   1.5989889  )
        22        H      tau(  22) = (   0.8222613   1.2663538   0.7851284  )
        23        H      tau(  23) = (   0.1777387   1.2663538   0.7851284  )
        24        H      tau(  24) = (   0.8222613   0.4657653   1.5989889  )

     number of k points=   460

     Number of k-points >= 100: set verbosity='high' to print them.

     Dense  grid:   200273 G-vectors     FFT dimensions: (  54,  90,  90)

     Estimated max dynamical RAM per process >      52.43 MB

     Estimated total dynamical RAM >       6.41 GB

     Initial potential from superposition of free atoms

     starting charge      63.9998, renormalised to      64.0000


     %%%%%%%%%%%%%%%%%%%%%%%%%%%%%%%%%%%%%%%%%%%%%%%%%%%%%%%%%%%%%%%%%%%%%%%%
     %                                                                      %
     % You are using vdW-DF, which was implemented by the Thonhauser group. %
     % Please cite the following two papers that made this development      %
     % possible and the two reviews that describe the various versions:     %
     %                                                                      %
     %   T. Thonhauser et al., PRL 115, 136402 (2015).                      %
     %   T. Thonhauser et al., PRB 76, 125112 (2007).                       %
     %   K. Berland et al., Rep. Prog. Phys. 78, 066501 (2015).             %
     %   D.C. Langreth et al., J. Phys.: Condens. Matter 21, 084203 (2009). %
     %                                                                      %
     % If you are calculating stress with vdW-DF, please also cite:         %
     %                                                                      %
     %   R. Sabatini et al., J. Phys.: Condens. Matter 24, 424209 (2012).   %
     %                                                                      %
     %%%%%%%%%%%%%%%%%%%%%%%%%%%%%%%%%%%%%%%%%%%%%%%%%%%%%%%%%%%%%%%%%%%%%%%%

     %%%%%%%%%%%%%%%%%%%%%%%%%%%%%%%%%%%%%%%%%%%%%%%%%%%%%%%%%%%%%%%%%%%%%%%%
     %                                                                      %
     %  vdW-DF NEWS:                                                        %
     %                                                                      %
     %  * vdW-DF3 is now available. DOI: 10.1021/acs.jctc.0c00471           %
     %    use with input_dft = 'vdW-DF3-opt1' or 'vdW-DF3-opt2'             %
     %                                                                      %
     %  * Unscreened and range-separated hybrid vdW-DF-cx functionals       %
     %    DOI: 10.1063/1.4986522 and 10.1088/1361-648X/ac2ad2               %
     %    use with input_dft = 'vdW-DF-cx0'    and 'vdW-DF-ahcx'            %
     %  * Unscreened and range-separated hybrid vdW-DF2-b86r functionals    %
     %    DOI: 10.1063/1.4986522 and DOI: 10.1103/PhysRevX.12.041003        %
     %    use with input_dft = 'vdW-DF2-br0' and 'vdW-DF2-ahbr'             %
     %                                                                      %
     %%%%%%%%%%%%%%%%%%%%%%%%%%%%%%%%%%%%%%%%%%%%%%%%%%%%%%%%%%%%%%%%%%%%%%%%


     Starting wfcs are   48 randomized atomic wfcs

     total cpu time spent up to now is        6.6 secs

     per-process dynamical memory:    59.8 Mb

     Self-consistent Calculation

     iteration #  1     ecut=    90.00 Ry     beta= 0.70
     Davidson diagonalization with overlap
     ethr =  1.00E-02,  avg # of iterations =  2.0

     total cpu time spent up to now is       16.0 secs

     total energy              =    -277.30094068 Ry
     estimated scf accuracy    <       3.17381591 Ry

     iteration #  2     ecut=    90.00 Ry     beta= 0.70
     Davidson diagonalization with overlap
     ethr =  4.96E-03,  avg # of iterations =  3.0

     total cpu time spent up to now is       28.4 secs

     total energy              =    -278.32493996 Ry
     estimated scf accuracy    <       2.26486540 Ry

     iteration #  3     ecut=    90.00 Ry     beta= 0.70
     Davidson diagonalization with overlap
     ethr =  3.54E-03,  avg # of iterations =  2.0

     total cpu time spent up to now is       37.9 secs

     total energy              =    -278.63521463 Ry
     estimated scf accuracy    <       0.09261938 Ry

     iteration #  4     ecut=    90.00 Ry     beta= 0.70
     Davidson diagonalization with overlap
     ethr =  1.45E-04,  avg # of iterations =  4.0

     total cpu time spent up to now is       52.1 secs

     total energy              =    -278.70734721 Ry
     estimated scf accuracy    <       0.11887856 Ry

     iteration #  5     ecut=    90.00 Ry     beta= 0.70
     Davidson diagonalization with overlap
     ethr =  1.45E-04,  avg # of iterations =  2.0

     total cpu time spent up to now is       60.3 secs

     total energy              =    -278.70828872 Ry
     estimated scf accuracy    <       0.01745399 Ry

     iteration #  6     ecut=    90.00 Ry     beta= 0.70
     Davidson diagonalization with overlap
     ethr =  2.73E-05,  avg # of iterations =  2.0

     total cpu time spent up to now is       70.2 secs

     total energy              =    -278.71314890 Ry
     estimated scf accuracy    <       0.00018808 Ry

     iteration #  7     ecut=    90.00 Ry     beta= 0.70
     Davidson diagonalization with overlap
     ethr =  2.94E-07,  avg # of iterations =  5.5

     total cpu time spent up to now is       85.4 secs

     total energy              =    -278.71415008 Ry
     estimated scf accuracy    <       0.00166725 Ry

     iteration #  8     ecut=    90.00 Ry     beta= 0.70
     Davidson diagonalization with overlap
     ethr =  2.94E-07,  avg # of iterations =  2.0

     total cpu time spent up to now is       94.9 secs

     total energy              =    -278.71320717 Ry
     estimated scf accuracy    <       0.00256962 Ry

     iteration #  9     ecut=    90.00 Ry     beta= 0.70
     Davidson diagonalization with overlap
     ethr =  2.94E-07,  avg # of iterations =  4.0

     total cpu time spent up to now is      108.3 secs

     total energy              =    -278.71343137 Ry
     estimated scf accuracy    <       0.00024245 Ry

     iteration # 10     ecut=    90.00 Ry     beta= 0.70
     Davidson diagonalization with overlap
     ethr =  2.94E-07,  avg # of iterations =  1.0

     total cpu time spent up to now is      115.3 secs

     total energy              =    -278.71338217 Ry
     estimated scf accuracy    <       0.00024208 Ry

     iteration # 11     ecut=    90.00 Ry     beta= 0.70
     Davidson diagonalization with overlap
     ethr =  2.94E-07,  avg # of iterations =  1.0

     total cpu time spent up to now is      122.2 secs

     total energy              =    -278.71340905 Ry
     estimated scf accuracy    <       0.00009741 Ry

     iteration # 12     ecut=    90.00 Ry     beta= 0.70
     Davidson diagonalization with overlap
     ethr =  1.52E-07,  avg # of iterations =  1.0

     total cpu time spent up to now is      129.1 secs

     total energy              =    -278.71331580 Ry
     estimated scf accuracy    <       0.00013865 Ry

     iteration # 13     ecut=    90.00 Ry     beta= 0.70
     Davidson diagonalization with overlap
     ethr =  1.52E-07,  avg # of iterations =  3.0

     total cpu time spent up to now is      141.6 secs

     total energy              =    -278.71339098 Ry
     estimated scf accuracy    <       0.00007040 Ry

     iteration # 14     ecut=    90.00 Ry     beta= 0.70
     Davidson diagonalization with overlap
     ethr =  1.10E-07,  avg # of iterations =  1.0

     total cpu time spent up to now is      148.6 secs

     total energy              =    -278.71338676 Ry
     estimated scf accuracy    <       0.00005298 Ry

     iteration # 15     ecut=    90.00 Ry     beta= 0.70
     Davidson diagonalization with overlap
     ethr =  8.28E-08,  avg # of iterations =  1.0

     total cpu time spent up to now is      155.5 secs

     total energy              =    -278.71336271 Ry
     estimated scf accuracy    <       0.00004106 Ry

     iteration # 16     ecut=    90.00 Ry     beta= 0.70
     Davidson diagonalization with overlap
     ethr =  6.41E-08,  avg # of iterations =  3.0

     total cpu time spent up to now is      167.6 secs

     total energy              =    -278.71337703 Ry
     estimated scf accuracy    <       0.00003408 Ry

     iteration # 17     ecut=    90.00 Ry     beta= 0.70
     Davidson diagonalization with overlap
     ethr =  5.32E-08,  avg # of iterations =  1.0

     total cpu time spent up to now is      174.5 secs

     total energy              =    -278.71337632 Ry
     estimated scf accuracy    <       0.00001982 Ry

     iteration # 18     ecut=    90.00 Ry     beta= 0.70
     Davidson diagonalization with overlap
     ethr =  3.10E-08,  avg # of iterations =  2.0

     total cpu time spent up to now is      184.0 secs

     total energy              =    -278.71337547 Ry
     estimated scf accuracy    <       0.00002030 Ry

     iteration # 19     ecut=    90.00 Ry     beta= 0.70
     Davidson diagonalization with overlap
     ethr =  3.10E-08,  avg # of iterations =  3.0

     total cpu time spent up to now is      196.1 secs

     total energy              =    -278.71337088 Ry
     estimated scf accuracy    <       0.00003398 Ry

     iteration # 20     ecut=    90.00 Ry     beta= 0.70
     Davidson diagonalization with overlap
     ethr =  3.10E-08,  avg # of iterations =  2.0

     total cpu time spent up to now is      206.1 secs

     total energy              =    -278.71337397 Ry
     estimated scf accuracy    <       0.00000154 Ry

     iteration # 21     ecut=    90.00 Ry     beta= 0.70
     Davidson diagonalization with overlap
     ethr =  2.41E-09,  avg # of iterations =  4.0

     total cpu time spent up to now is      220.9 secs

     total energy              =    -278.71337548 Ry
     estimated scf accuracy    <       0.00000214 Ry

     iteration # 22     ecut=    90.00 Ry     beta= 0.70
     Davidson diagonalization with overlap
     ethr =  2.41E-09,  avg # of iterations =  1.0

     total cpu time spent up to now is      227.8 secs

     total energy              =    -278.71337512 Ry
     estimated scf accuracy    <       0.00000083 Ry

     iteration # 23     ecut=    90.00 Ry     beta= 0.70
     Davidson diagonalization with overlap
     ethr =  1.30E-09,  avg # of iterations =  2.0

     total cpu time spent up to now is      237.8 secs

     End of self-consistent calculation

     Number of k-points >= 100: set verbosity='high' to print the bands.

     highest occupied level (ev):    -3.8909

!    total energy              =    -278.71337531 Ry
     estimated scf accuracy    <       0.00000002 Ry

     The total energy is the sum of the following terms:
     one-electron contribution =    -238.45026774 Ry
     hartree contribution      =     140.05440839 Ry
     xc contribution           =     -70.58469844 Ry
     ewald contribution        =    -109.73281752 Ry

     convergence has been achieved in  23 iterations

     Forces acting on atoms (cartesian axes, Ry/au):

     atom    1 type  2   force =     0.00000000    0.00006147    0.00006840
     atom    2 type  2   force =     0.00000000   -0.00006158    0.00006844
     atom    3 type  2   force =     0.00000000    0.00006162    0.00006822
     atom    4 type  2   force =     0.00000000   -0.00006156    0.00006843
     atom    5 type  2   force =     0.00000000   -0.00062159   -0.00060081
     atom    6 type  2   force =     0.00000000    0.00062181   -0.00060052
     atom    7 type  2   force =     0.00000000   -0.00062162   -0.00060075
     atom    8 type  2   force =     0.00000000    0.00062145   -0.00060082
     atom    9 type  1   force =     0.00000000    0.00043195    0.00003173
     atom   10 type  1   force =     0.00000000   -0.00043201    0.00003158
     atom   11 type  1   force =     0.00000000    0.00043199    0.00003133
     atom   12 type  1   force =     0.00000000   -0.00043201    0.00003154
     atom   13 type  1   force =     0.00000000    0.00014931    0.00006810
     atom   14 type  1   force =     0.00000000   -0.00014934    0.00006806
     atom   15 type  1   force =     0.00000000    0.00014959    0.00006808
     atom   16 type  1   force =     0.00000000   -0.00014953    0.00006812
     atom   17 type  1   force =    -0.00012619   -0.00031248    0.00021630
     atom   18 type  1   force =     0.00012601    0.00031263    0.00021644
     atom   19 type  1   force =    -0.00012601    0.00031263    0.00021644
     atom   20 type  1   force =     0.00012619   -0.00031248    0.00021630
     atom   21 type  1   force =    -0.00012605   -0.00031257    0.00021637
     atom   22 type  1   force =     0.00012615    0.00031245    0.00021632
     atom   23 type  1   force =    -0.00012615    0.00031245    0.00021632
     atom   24 type  1   force =     0.00012605   -0.00031257    0.00021637

     Total force =     0.002273     Total SCF correction =     0.000035


     Computing stress (Cartesian axis) and pressure

          total   stress  (Ry/bohr**3)                   (kbar)     P=        1.66
   0.00000423   0.00000000   0.00000000            0.62        0.00        0.00
   0.00000000   0.00001933  -0.00000000            0.00        2.84       -0.00
   0.00000000  -0.00000000   0.00001026            0.00       -0.00        1.51


     Writing all to output data dir ./iceIh/iceIh.save/ :
     XML data file, charge density, pseudopotentials, collected wavefunctions

     init_run     :      6.21s CPU      6.31s WALL (       1 calls)
     electrons    :    227.93s CPU    231.29s WALL (       1 calls)
     forces       :      0.59s CPU      0.61s WALL (       1 calls)
     stress       :      8.97s CPU      9.01s WALL (       1 calls)

     Called by init_run:
     wfcinit      :      4.20s CPU      4.24s WALL (       1 calls)
     potinit      :      1.60s CPU      1.62s WALL (       1 calls)
     hinit0       :      0.33s CPU      0.34s WALL (       1 calls)

     Called by electrons:
     c_bands      :    199.90s CPU    202.72s WALL (      23 calls)
     sum_band     :     26.33s CPU     26.60s WALL (      23 calls)
     v_of_rho     :      3.09s CPU      3.27s WALL (      24 calls)
     newd         :      0.07s CPU      0.08s WALL (      24 calls)
     mix_rho      :      0.08s CPU      0.08s WALL (      23 calls)
     vdW_kernel   :      1.51s CPU      1.52s WALL (       1 calls)

     Called by c_bands:
     init_us_2    :      3.21s CPU      3.33s WALL (    5635 calls)
     cegterg      :    193.71s CPU    195.49s WALL (    2645 calls)

     Called by *egterg:
     cdiaghg      :     14.88s CPU     14.94s WALL (    8694 calls)
     h_psi        :    151.85s CPU    153.47s WALL (    8809 calls)
     s_psi        :      5.97s CPU      6.01s WALL (    8809 calls)
     g_psi        :      0.54s CPU      0.54s WALL (    6049 calls)

     Called by h_psi:
     h_psi:calbec :      9.53s CPU      9.63s WALL (    8809 calls)
     vloc_psi     :    134.97s CPU    136.41s WALL (    8809 calls)
     add_vuspsi   :      6.16s CPU      6.21s WALL (    8809 calls)

     General routines
     calbec       :     12.28s CPU     12.41s WALL (   12029 calls)
     fft          :      1.14s CPU      1.16s WALL (    1516 calls)
     ffts         :      0.01s CPU      0.01s WALL (      23 calls)
     fftw         :    142.22s CPU    143.70s WALL (  594642 calls)

     Parallel routines

     PWSCF        :   4m 7.19s CPU   4m15.96s WALL


   This run was terminated on:  17:25:56  26Mar2026            

=------------------------------------------------------------------------------=
   JOB DONE.
=------------------------------------------------------------------------------=
