
     Program PWSCF v.7.3.1 starts on  2Apr2026 at  0:13:44 

     This program is part of the open-source Quantum ESPRESSO suite
     for quantum simulation of materials; please cite
         "P. Giannozzi et al., J. Phys.:Condens. Matter 21 395502 (2009);
         "P. Giannozzi et al., J. Phys.:Condens. Matter 29 465901 (2017);
         "P. Giannozzi et al., J. Chem. Phys. 152 154105 (2020);
          URL http://www.quantum-espresso.org", 
     in publications or presentations arising from this work. More details at
     http://www.quantum-espresso.org/quote

     Parallel version (MPI), running on   128 processors

     MPI processes distributed on     1 nodes
     236628 MiB available memory on the printing compute node when the environment starts

     Waiting for input...
     Reading input from standard input

     Current dimensions of program PWSCF are:
     Max number of different atomic species (ntypx) = 10
     Max number of k-points (npk) =  40000
     Max angular momentum in pseudopotentials (lmaxx) =  4

     IMPORTANT: XC functional enforced from input :
     Exchange-correlation= VDW-DF2
                           (   1   4  13   0   2   0   0)
     Any further DFT definition will be discarded
     Please, verify this is what you really want

     Found identity + ( -0.5000 -0.5000  0.0000) symmetry
     This is a supercell, fractional translations are disabled

     K-points division:     npool     =       4
     R & G space division:  proc/nbgrp/npool/nimage =      32
     Subspace diagonalization in iterative solution of the eigenvalue problem:
     a serial algorithm will be used


     Parallelization info
     --------------------
     sticks:   dense  smooth     PW     G-vecs:    dense   smooth      PW
     Min         112     112     31                 6314     6314     909
     Max         113     113     32                 6319     6319     913
     Sum        3611    3611    993               202149   202149   29181

     Using Slab Decomposition



     bravais-lattice index     =            8
     lattice parameter (alat)  =       8.5331  a.u.
     unit-cell volume          =    1751.7555 (a.u.)^3
     number of atoms/cell      =           24
     number of atomic types    =            2
     number of electrons       =        64.00
     number of Kohn-Sham states=           32
     kinetic-energy cutoff     =      90.0000  Ry
     charge density cutoff     =     360.0000  Ry
     scf convergence threshold =      1.0E-07
     mixing beta               =       0.7000
     number of iterations used =            8  plain     mixing
     energy convergence thresh.=      1.0E-04
     force convergence thresh. =      1.0E-03
     Exchange-correlation= VDW-DF2
                           (   1   4  13   0   2   0   0)
     nstep                     =           50


     celldm(1)=   8.533069  celldm(2)=   1.732119  celldm(3)=   1.627721
     celldm(4)=   0.000000  celldm(5)=   0.000000  celldm(6)=   0.000000

     crystal axes: (cart. coord. in units of alat)
               a(1) = (   1.000000   0.000000   0.000000 )  
               a(2) = (   0.000000   1.732119   0.000000 )  
               a(3) = (   0.000000   0.000000   1.627721 )  

     reciprocal axes: (cart. coord. in units 2 pi/alat)
               b(1) = (  1.000000  0.000000  0.000000 )  
               b(2) = (  0.000000  0.577328  0.000000 )  
               b(3) = (  0.000000  0.000000  0.614356 )  


     PseudoPot. # 1 for H  read from file:
     ./H.pbe-van_ak.UPF
     MD5 check sum: 077eb6d537518a38cb46c6de387227b7
     Pseudo is Ultrasoft, Zval =  1.0
     Generated by new atomic code, or converted to UPF format
     Using radial grid of  615 points,  1 beta functions with: 
                l(1) =   0
     Q(r) pseudized with  8 coefficients,  rinner =    0.800

     PseudoPot. # 2 for O  read from file:
     ./O.pbe-van_ak.UPF
     MD5 check sum: 78c19812648e8988a0fe644b0f25305e
     Pseudo is Ultrasoft, Zval =  6.0
     Generated by new atomic code, or converted to UPF format
     Using radial grid of  737 points,  4 beta functions with: 
                l(1) =   0
                l(2) =   0
                l(3) =   1
                l(4) =   1
     Q(r) pseudized with  8 coefficients,  rinner =    0.800   0.800   0.800


     atomic species   valence    mass     pseudopotential
     H                 1.00     1.00800     H ( 1.00)
     O                 6.00    16.00000     O ( 1.00)

      2 Sym. Ops. (no inversion) found



   Cartesian axes

     site n.     atom                  positions (alat units)
         1        O      tau(   1) = (   0.0000000   1.1515127   0.1027092  )
         2        O      tau(   2) = (   0.0000000   0.5806063   0.9165697  )
         3        O      tau(   3) = (   0.5000000   0.2854532   0.1027092  )
         4        O      tau(   4) = (   0.5000000   1.4466659   0.9165697  )
         5        O      tau(   5) = (   0.5000000   1.4298643   1.5250118  )
         6        O      tau(   6) = (   0.5000000   0.3022548   0.7111513  )
         7        O      tau(   7) = (   0.0000000   0.5638048   1.5250118  )
         8        O      tau(   8) = (   0.0000000   1.1683143   0.7111513  )
         9        H      tau(   9) = (   0.0000000   1.1494343   0.3195216  )
        10        H      tau(  10) = (   0.0000000   0.5826848   1.1333822  )
        11        H      tau(  11) = (   0.5000000   0.2833747   0.3195216  )
        12        H      tau(  12) = (   0.5000000   1.4487443   1.1333822  )
        13        H      tau(  13) = (   0.0000000   0.9289355   0.0297873  )
        14        H      tau(  14) = (   0.0000000   0.8031836   0.8436478  )
        15        H      tau(  15) = (   0.5000000   0.0628759   0.0297873  )
        16        H      tau(  16) = (   0.5000000   1.6692431   0.8436478  )
        17        H      tau(  17) = (   0.6766000   1.3420459   1.5979337  )
        18        H      tau(  18) = (   0.3234000   0.3900732   0.7840732  )
        19        H      tau(  19) = (   0.6766000   0.3900732   0.7840732  )
        20        H      tau(  20) = (   0.3234000   1.3420459   1.5979337  )
        21        H      tau(  21) = (   0.1766000   0.4759863   1.5979337  )
        22        H      tau(  22) = (   0.8234000   1.2561327   0.7840732  )
        23        H      tau(  23) = (   0.1766000   1.2561327   0.7840732  )
        24        H      tau(  24) = (   0.8234000   0.4759863   1.5979337  )

     number of k points=   460

     Number of k-points >= 100: set verbosity='high' to print them.

     Dense  grid:   202149 G-vectors     FFT dimensions: (  54,  90,  90)

     Estimated max dynamical RAM per process >      52.88 MB

     Estimated total dynamical RAM >       6.47 GB

     Initial potential from superposition of free atoms

     starting charge      63.9998, renormalised to      64.0000


     %%%%%%%%%%%%%%%%%%%%%%%%%%%%%%%%%%%%%%%%%%%%%%%%%%%%%%%%%%%%%%%%%%%%%%%%
     %                                                                      %
     % You are using vdW-DF, which was implemented by the Thonhauser group. %
     % Please cite the following two papers that made this development      %
     % possible and the two reviews that describe the various versions:     %
     %                                                                      %
     %   T. Thonhauser et al., PRL 115, 136402 (2015).                      %
     %   T. Thonhauser et al., PRB 76, 125112 (2007).                       %
     %   K. Berland et al., Rep. Prog. Phys. 78, 066501 (2015).             %
     %   D.C. Langreth et al., J. Phys.: Condens. Matter 21, 084203 (2009). %
     %                                                                      %
     % If you are calculating stress with vdW-DF, please also cite:         %
     %                                                                      %
     %   R. Sabatini et al., J. Phys.: Condens. Matter 24, 424209 (2012).   %
     %                                                                      %
     %%%%%%%%%%%%%%%%%%%%%%%%%%%%%%%%%%%%%%%%%%%%%%%%%%%%%%%%%%%%%%%%%%%%%%%%

     %%%%%%%%%%%%%%%%%%%%%%%%%%%%%%%%%%%%%%%%%%%%%%%%%%%%%%%%%%%%%%%%%%%%%%%%
     %                                                                      %
     %  vdW-DF NEWS:                                                        %
     %                                                                      %
     %  * vdW-DF3 is now available. DOI: 10.1021/acs.jctc.0c00471           %
     %    use with input_dft = 'vdW-DF3-opt1' or 'vdW-DF3-opt2'             %
     %                                                                      %
     %  * Unscreened and range-separated hybrid vdW-DF-cx functionals       %
     %    DOI: 10.1063/1.4986522 and 10.1088/1361-648X/ac2ad2               %
     %    use with input_dft = 'vdW-DF-cx0'    and 'vdW-DF-ahcx'            %
     %  * Unscreened and range-separated hybrid vdW-DF2-b86r functionals    %
     %    DOI: 10.1063/1.4986522 and DOI: 10.1103/PhysRevX.12.041003        %
     %    use with input_dft = 'vdW-DF2-br0' and 'vdW-DF2-ahbr'             %
     %                                                                      %
     %%%%%%%%%%%%%%%%%%%%%%%%%%%%%%%%%%%%%%%%%%%%%%%%%%%%%%%%%%%%%%%%%%%%%%%%


     Starting wfcs are   48 randomized atomic wfcs

     total cpu time spent up to now is        6.7 secs

     per-process dynamical memory:    60.5 Mb

     Self-consistent Calculation

     iteration #  1     ecut=    90.00 Ry     beta= 0.70
     Davidson diagonalization with overlap
     ethr =  1.00E-02,  avg # of iterations =  2.0

     total cpu time spent up to now is       16.1 secs

     total energy              =    -277.18229458 Ry
     estimated scf accuracy    <       3.32916627 Ry

     iteration #  2     ecut=    90.00 Ry     beta= 0.70
     Davidson diagonalization with overlap
     ethr =  5.20E-03,  avg # of iterations =  3.0

     total cpu time spent up to now is       28.6 secs

     total energy              =    -278.25079834 Ry
     estimated scf accuracy    <       2.34554796 Ry

     iteration #  3     ecut=    90.00 Ry     beta= 0.70
     Davidson diagonalization with overlap
     ethr =  3.66E-03,  avg # of iterations =  2.0

     total cpu time spent up to now is       38.1 secs

     total energy              =    -278.57703935 Ry
     estimated scf accuracy    <       0.09310062 Ry

     iteration #  4     ecut=    90.00 Ry     beta= 0.70
     Davidson diagonalization with overlap
     ethr =  1.45E-04,  avg # of iterations =  4.0

     total cpu time spent up to now is       52.5 secs

     total energy              =    -278.65072728 Ry
     estimated scf accuracy    <       0.11488106 Ry

     iteration #  5     ecut=    90.00 Ry     beta= 0.70
     Davidson diagonalization with overlap
     ethr =  1.45E-04,  avg # of iterations =  2.0

     total cpu time spent up to now is       60.6 secs

     total energy              =    -278.65554984 Ry
     estimated scf accuracy    <       0.01833065 Ry

     iteration #  6     ecut=    90.00 Ry     beta= 0.70
     Davidson diagonalization with overlap
     ethr =  2.86E-05,  avg # of iterations =  2.0

     total cpu time spent up to now is       68.8 secs

     total energy              =    -278.65283834 Ry
     estimated scf accuracy    <       0.00875330 Ry

     iteration #  7     ecut=    90.00 Ry     beta= 0.70
     Davidson diagonalization with overlap
     ethr =  1.37E-05,  avg # of iterations =  3.0

     total cpu time spent up to now is       80.3 secs

     total energy              =    -278.65623162 Ry
     estimated scf accuracy    <       0.00018818 Ry

     iteration #  8     ecut=    90.00 Ry     beta= 0.70
     Davidson diagonalization with overlap
     ethr =  2.94E-07,  avg # of iterations =  4.1

     total cpu time spent up to now is       94.7 secs

     total energy              =    -278.65604427 Ry
     estimated scf accuracy    <       0.00193989 Ry

     iteration #  9     ecut=    90.00 Ry     beta= 0.70
     Davidson diagonalization with overlap
     ethr =  2.94E-07,  avg # of iterations =  3.0

     total cpu time spent up to now is      106.1 secs

     total energy              =    -278.65593115 Ry
     estimated scf accuracy    <       0.00061635 Ry

     iteration # 10     ecut=    90.00 Ry     beta= 0.70
     Davidson diagonalization with overlap
     ethr =  2.94E-07,  avg # of iterations =  2.8

     total cpu time spent up to now is      116.9 secs

     total energy              =    -278.65595870 Ry
     estimated scf accuracy    <       0.00010673 Ry

     iteration # 11     ecut=    90.00 Ry     beta= 0.70
     Davidson diagonalization with overlap
     ethr =  1.67E-07,  avg # of iterations =  2.0

     total cpu time spent up to now is      125.9 secs

     total energy              =    -278.65596871 Ry
     estimated scf accuracy    <       0.00001542 Ry

     iteration # 12     ecut=    90.00 Ry     beta= 0.70
     Davidson diagonalization with overlap
     ethr =  2.41E-08,  avg # of iterations =  3.0

     total cpu time spent up to now is      137.3 secs

     total energy              =    -278.65597479 Ry
     estimated scf accuracy    <       0.00000011 Ry

     iteration # 13     ecut=    90.00 Ry     beta= 0.70
     Davidson diagonalization with overlap
     ethr =  1.69E-10,  avg # of iterations =  6.7

     total cpu time spent up to now is      155.5 secs

     total energy              =    -278.65597497 Ry
     estimated scf accuracy    <       0.00000045 Ry

     iteration # 14     ecut=    90.00 Ry     beta= 0.70
     Davidson diagonalization with overlap
     ethr =  1.69E-10,  avg # of iterations =  4.0

     total cpu time spent up to now is      169.0 secs

     End of self-consistent calculation

     Number of k-points >= 100: set verbosity='high' to print the bands.

     highest occupied level (ev):    -3.8302

!    total energy              =    -278.65597506 Ry
     estimated scf accuracy    <       0.00000005 Ry

     The total energy is the sum of the following terms:
     one-electron contribution =    -241.21415730 Ry
     hartree contribution      =     141.26182034 Ry
     xc contribution           =     -70.74799688 Ry
     ewald contribution        =    -107.95564121 Ry

     convergence has been achieved in  14 iterations

     Forces acting on atoms (cartesian axes, Ry/au):

     atom    1 type  2   force =     0.00000000   -0.06445545   -0.05293656
     atom    2 type  2   force =     0.00000000    0.06445530   -0.05293596
     atom    3 type  2   force =     0.00000000   -0.06445631   -0.05293591
     atom    4 type  2   force =     0.00000000    0.06445628   -0.05293517
     atom    5 type  2   force =     0.00000000    0.09746221   -0.06630179
     atom    6 type  2   force =     0.00000000   -0.09746202   -0.06630161
     atom    7 type  2   force =     0.00000000    0.09746226   -0.06630177
     atom    8 type  2   force =     0.00000000   -0.09746212   -0.06630161
     atom    9 type  1   force =     0.00000000   -0.00376331    0.02281517
     atom   10 type  1   force =     0.00000000    0.00376333    0.02281446
     atom   11 type  1   force =     0.00000000   -0.00376337    0.02281547
     atom   12 type  1   force =     0.00000000    0.00376339    0.02281482
     atom   13 type  1   force =     0.00000000    0.06713538    0.02480911
     atom   14 type  1   force =     0.00000000   -0.06713536    0.02480907
     atom   15 type  1   force =     0.00000000    0.06713525    0.02480911
     atom   16 type  1   force =     0.00000000   -0.06713519    0.02480907
     atom   17 type  1   force =     0.05717944   -0.04862005    0.03580678
     atom   18 type  1   force =    -0.05717929    0.04861999    0.03580670
     atom   19 type  1   force =     0.05717929    0.04861999    0.03580670
     atom   20 type  1   force =    -0.05717944   -0.04862005    0.03580678
     atom   21 type  1   force =     0.05717958   -0.04862014    0.03580683
     atom   22 type  1   force =    -0.05717942    0.04862007    0.03580675
     atom   23 type  1   force =     0.05717942    0.04862007    0.03580675
     atom   24 type  1   force =    -0.05717958   -0.04862014    0.03580683

     Total force =     0.401696     Total SCF correction =     0.000124


     Computing stress (Cartesian axis) and pressure

          total   stress  (Ry/bohr**3)                   (kbar)     P=       21.78
   0.00042438   0.00000000   0.00000000           62.43        0.00        0.00
   0.00000000  -0.00017943  -0.00000000            0.00      -26.39       -0.00
   0.00000000  -0.00000000   0.00019922            0.00       -0.00       29.31


     BFGS Geometry Optimization
     Energy error            =      0.0E+00 Ry
     Gradient error          =      9.7E-02 Ry/Bohr

     number of scf cycles    =   1
     number of bfgs steps    =   0

     energy             new  =    -278.6559750619 Ry

     new trust radius        =       0.1178762789 bohr
     new conv_thr            =       0.0000001000 Ry


ATOMIC_POSITIONS (crystal)
O                0.0000000000        0.6604390825        0.0592887264
O                0.0000000000        0.3395609068        0.5592887464
O                0.5000000000        0.1604390243        0.0592887728
O                0.5000000000        0.8395609734        0.5592888034
O                0.5000000000        0.8320940767        0.9321264860
O                0.5000000000        0.1679059365        0.4321264689
O                0.0000000000        0.3320940800        0.9321264875
O                0.0000000000        0.6679059295        0.4321264686
H                0.0000000000        0.6633454110        0.1979426255
H                0.0000000000        0.3366545898        0.6979426043
H                0.5000000000        0.1633454071        0.1979426469
H                0.5000000000        0.8366545943        0.6979426298
H                0.0000000000        0.5408422269        0.0200861839
H                0.0000000000        0.4591577747        0.5200861771
H                0.5000000000        0.0408422181        0.0200861839
H                0.5000000000        0.9591577859        0.5200861769
H                0.6833009023        0.7715104837        0.9842779858
H                0.3166991154        0.2284895120        0.4842779802
H                0.6833008846        0.2284895120        0.4842779802
H                0.3166990977        0.7715104837        0.9842779858
H                0.1833009181        0.2715104782        0.9842779894
H                0.8166991000        0.7284895173        0.4842779835
H                0.1833009000        0.7284895173        0.4842779835
H                0.8166990819        0.2715104782        0.9842779894



     Writing config-only to output data dir ./iceIh_vdw/iceIh_vdw.save/ :
     XML data file
     NEW-OLD atomic charge density approx. for the potential

     total cpu time spent up to now is      179.0 secs

     per-process dynamical memory:    61.1 Mb

     Self-consistent Calculation

     iteration #  1     ecut=    90.00 Ry     beta= 0.70
     Davidson diagonalization with overlap
     ethr =  1.00E-06,  avg # of iterations = 10.0

     total cpu time spent up to now is      207.1 secs

     total energy              =    -278.67961494 Ry
     estimated scf accuracy    <       0.04905444 Ry

     iteration #  2     ecut=    90.00 Ry     beta= 0.70
     Davidson diagonalization with overlap
     ethr =  7.66E-05,  avg # of iterations =  3.0

     total cpu time spent up to now is      219.0 secs

     total energy              =    -278.68930722 Ry
     estimated scf accuracy    <       0.03039077 Ry

     iteration #  3     ecut=    90.00 Ry     beta= 0.70
     Davidson diagonalization with overlap
     ethr =  4.75E-05,  avg # of iterations =  2.8

     total cpu time spent up to now is      229.2 secs

     total energy              =    -278.69610836 Ry
     estimated scf accuracy    <       0.00036528 Ry

     iteration #  4     ecut=    90.00 Ry     beta= 0.70
     Davidson diagonalization with overlap
     ethr =  5.71E-07,  avg # of iterations =  5.8

     total cpu time spent up to now is      245.8 secs

     total energy              =    -278.69626361 Ry
     estimated scf accuracy    <       0.00108795 Ry

     iteration #  5     ecut=    90.00 Ry     beta= 0.70
     Davidson diagonalization with overlap
     ethr =  5.71E-07,  avg # of iterations =  4.0

     total cpu time spent up to now is      258.9 secs

     total energy              =    -278.69654341 Ry
     estimated scf accuracy    <       0.00003884 Ry

     iteration #  6     ecut=    90.00 Ry     beta= 0.70
     Davidson diagonalization with overlap
     ethr =  6.07E-08,  avg # of iterations =  2.7

     total cpu time spent up to now is      269.0 secs

     total energy              =    -278.69653893 Ry
     estimated scf accuracy    <       0.00003726 Ry

     iteration #  7     ecut=    90.00 Ry     beta= 0.70
     Davidson diagonalization with overlap
     ethr =  5.82E-08,  avg # of iterations =  2.0

     total cpu time spent up to now is      277.6 secs

     total energy              =    -278.69653846 Ry
     estimated scf accuracy    <       0.00000652 Ry

     iteration #  8     ecut=    90.00 Ry     beta= 0.70
     Davidson diagonalization with overlap
     ethr =  1.02E-08,  avg # of iterations =  3.8

     total cpu time spent up to now is      289.8 secs

     total energy              =    -278.69654173 Ry
     estimated scf accuracy    <       0.00000289 Ry

     iteration #  9     ecut=    90.00 Ry     beta= 0.70
     Davidson diagonalization with overlap
     ethr =  4.51E-09,  avg # of iterations =  2.0

     total cpu time spent up to now is      298.3 secs

     total energy              =    -278.69654177 Ry
     estimated scf accuracy    <       0.00000057 Ry

     iteration # 10     ecut=    90.00 Ry     beta= 0.70
     Davidson diagonalization with overlap
     ethr =  8.87E-10,  avg # of iterations =  2.9

     total cpu time spent up to now is      308.6 secs

     End of self-consistent calculation

     Number of k-points >= 100: set verbosity='high' to print the bands.

     highest occupied level (ev):    -3.8648

!    total energy              =    -278.69654190 Ry
     estimated scf accuracy    <       0.00000001 Ry

     The total energy is the sum of the following terms:
     one-electron contribution =    -237.57452178 Ry
     hartree contribution      =     139.61818372 Ry
     xc contribution           =     -70.38911939 Ry
     ewald contribution        =    -110.35108445 Ry

     convergence has been achieved in  10 iterations

     Forces acting on atoms (cartesian axes, Ry/au):

     atom    1 type  2   force =     0.00000000    0.04179157    0.03504138
     atom    2 type  2   force =     0.00000000   -0.04179129    0.03504090
     atom    3 type  2   force =     0.00000000    0.04179210    0.03504123
     atom    4 type  2   force =     0.00000000   -0.04179188    0.03504068
     atom    5 type  2   force =     0.00000000   -0.03109076    0.03038317
     atom    6 type  2   force =     0.00000000    0.03109064    0.03038310
     atom    7 type  2   force =     0.00000000   -0.03109083    0.03038324
     atom    8 type  2   force =     0.00000000    0.03109074    0.03038320
     atom    9 type  1   force =     0.00000000   -0.00483632   -0.02569966
     atom   10 type  1   force =     0.00000000    0.00483632   -0.02569929
     atom   11 type  1   force =     0.00000000   -0.00483644   -0.02569944
     atom   12 type  1   force =     0.00000000    0.00483646   -0.02569902
     atom   13 type  1   force =     0.00000000   -0.02785565   -0.00797316
     atom   14 type  1   force =     0.00000000    0.02785539   -0.00797307
     atom   15 type  1   force =     0.00000000   -0.02785611   -0.00797319
     atom   16 type  1   force =     0.00000000    0.02785589   -0.00797309
     atom   17 type  1   force =    -0.03415769    0.01065241   -0.01587587
     atom   18 type  1   force =     0.03415759   -0.01065236   -0.01587584
     atom   19 type  1   force =    -0.03415759   -0.01065236   -0.01587584
     atom   20 type  1   force =     0.03415769    0.01065241   -0.01587587
     atom   21 type  1   force =    -0.03415778    0.01065244   -0.01587590
     atom   22 type  1   force =     0.03415769   -0.01065240   -0.01587587
     atom   23 type  1   force =    -0.03415769   -0.01065240   -0.01587587
     atom   24 type  1   force =     0.03415778    0.01065244   -0.01587590

     Total force =     0.194444     Total SCF correction =     0.000064


     Computing stress (Cartesian axis) and pressure

          total   stress  (Ry/bohr**3)                   (kbar)     P=      -18.57
  -0.00028572   0.00000000   0.00000000          -42.03        0.00        0.00
   0.00000000   0.00007039   0.00000000            0.00       10.35        0.00
   0.00000000   0.00000000  -0.00016342            0.00        0.00      -24.04

     Energy error            =      4.1E-02 Ry
     Gradient error          =      4.2E-02 Ry/Bohr

     number of scf cycles    =   2
     number of bfgs steps    =   1

     energy             old  =    -278.6559750619 Ry
     energy             new  =    -278.6965418971 Ry

     CASE: energy            _new < energy            _old

     new trust radius        =       0.0363953815 bohr
     new conv_thr            =       0.0000000418 Ry


ATOMIC_POSITIONS (crystal)
O                0.0000000000        0.6623254806        0.0609729489
O                0.0000000000        0.3376745212        0.5609729456
O                0.5000000000        0.1623254467        0.0609729886
O                0.5000000000        0.8376745615        0.5609729929
O                0.5000000000        0.8307355918        0.9335671291
O                0.5000000000        0.1692644160        0.4335671088
O                0.0000000000        0.3307355920        0.9335671340
O                0.0000000000        0.6692644133        0.4335671134
H                0.0000000000        0.6631169312        0.1966919531
H                0.0000000000        0.3368830695        0.6966919495
H                0.5000000000        0.1631169215        0.1966919855
H                0.5000000000        0.8368830809        0.6966919888
H                0.0000000000        0.5396067929        0.0197152808
H                0.0000000000        0.4603931966        0.5197152784
H                0.5000000000        0.0396067626        0.0197152793
H                0.5000000000        0.9603932313        0.5197152770
H                0.6806373539        0.7719621232        0.9835263401
H                0.3193626561        0.2280378748        0.4835263360
H                0.6806373439        0.2280378748        0.4835263360
H                0.3193626461        0.7719621232        0.9835263401
H                0.1806373631        0.2719621192        0.9835263424
H                0.8193626481        0.7280378781        0.4835263377
H                0.1806373519        0.7280378781        0.4835263377
H                0.8193626369        0.2719621192        0.9835263424



     Writing config-only to output data dir ./iceIh_vdw/iceIh_vdw.save/ :
     XML data file
     NEW-OLD atomic charge density approx. for the potential

     total cpu time spent up to now is      318.6 secs

     per-process dynamical memory:    61.3 Mb

     Self-consistent Calculation

     iteration #  1     ecut=    90.00 Ry     beta= 0.70
     Davidson diagonalization with overlap
     ethr =  1.00E-06,  avg # of iterations =  7.5

     total cpu time spent up to now is      339.6 secs

     total energy              =    -278.70861451 Ry
     estimated scf accuracy    <       0.00438963 Ry

     iteration #  2     ecut=    90.00 Ry     beta= 0.70
     Davidson diagonalization with overlap
     ethr =  6.86E-06,  avg # of iterations =  3.0

     total cpu time spent up to now is      351.1 secs

     total energy              =    -278.70952369 Ry
     estimated scf accuracy    <       0.00163177 Ry

     iteration #  3     ecut=    90.00 Ry     beta= 0.70
     Davidson diagonalization with overlap
     ethr =  2.55E-06,  avg # of iterations =  3.0

     total cpu time spent up to now is      361.6 secs

     total energy              =    -278.70991474 Ry
     estimated scf accuracy    <       0.00005374 Ry

     iteration #  4     ecut=    90.00 Ry     beta= 0.70
     Davidson diagonalization with overlap
     ethr =  8.40E-08,  avg # of iterations =  3.1

     total cpu time spent up to now is      372.4 secs

     total energy              =    -278.70992554 Ry
     estimated scf accuracy    <       0.00001229 Ry

     iteration #  5     ecut=    90.00 Ry     beta= 0.70
     Davidson diagonalization with overlap
     ethr =  1.92E-08,  avg # of iterations =  3.5

     total cpu time spent up to now is      383.5 secs

     total energy              =    -278.70992944 Ry
     estimated scf accuracy    <       0.00000062 Ry

     iteration #  6     ecut=    90.00 Ry     beta= 0.70
     Davidson diagonalization with overlap
     ethr =  9.67E-10,  avg # of iterations =  2.6

     total cpu time spent up to now is      393.8 secs

     total energy              =    -278.70992942 Ry
     estimated scf accuracy    <       0.00000032 Ry

     iteration #  7     ecut=    90.00 Ry     beta= 0.70
     Davidson diagonalization with overlap
     ethr =  5.01E-10,  avg # of iterations =  3.1

     total cpu time spent up to now is      404.8 secs

     End of self-consistent calculation

     Number of k-points >= 100: set verbosity='high' to print the bands.

     highest occupied level (ev):    -3.8837

!    total energy              =    -278.70992951 Ry
     estimated scf accuracy    <       0.00000001 Ry

     The total energy is the sum of the following terms:
     one-electron contribution =    -238.62663702 Ry
     hartree contribution      =     140.09305216 Ry
     xc contribution           =     -70.49283037 Ry
     ewald contribution        =    -109.68351428 Ry

     convergence has been achieved in   7 iterations

     Forces acting on atoms (cartesian axes, Ry/au):

     atom    1 type  2   force =     0.00000000   -0.00448950   -0.00617750
     atom    2 type  2   force =     0.00000000    0.00448939   -0.00617744
     atom    3 type  2   force =     0.00000000   -0.00448947   -0.00617771
     atom    4 type  2   force =     0.00000000    0.00448934   -0.00617769
     atom    5 type  2   force =     0.00000000   -0.00199693    0.00980577
     atom    6 type  2   force =     0.00000000    0.00199691    0.00980578
     atom    7 type  2   force =     0.00000000   -0.00199698    0.00980579
     atom    8 type  2   force =     0.00000000    0.00199696    0.00980581
     atom    9 type  1   force =     0.00000000   -0.00291621   -0.00036473
     atom   10 type  1   force =     0.00000000    0.00291622   -0.00036472
     atom   11 type  1   force =     0.00000000   -0.00291628   -0.00036467
     atom   12 type  1   force =     0.00000000    0.00291630   -0.00036467
     atom   13 type  1   force =     0.00000000    0.01213483    0.00456338
     atom   14 type  1   force =     0.00000000   -0.01213473    0.00456335
     atom   15 type  1   force =     0.00000000    0.01213491    0.00456349
     atom   16 type  1   force =     0.00000000   -0.01213481    0.00456347
     atom   17 type  1   force =    -0.01369542   -0.00167412   -0.00391346
     atom   18 type  1   force =     0.01369539    0.00167413   -0.00391346
     atom   19 type  1   force =    -0.01369539    0.00167413   -0.00391346
     atom   20 type  1   force =     0.01369542   -0.00167412   -0.00391346
     atom   21 type  1   force =    -0.01369548   -0.00167410   -0.00391346
     atom   22 type  1   force =     0.01369545    0.00167411   -0.00391347
     atom   23 type  1   force =    -0.01369545    0.00167411   -0.00391347
     atom   24 type  1   force =     0.01369548   -0.00167410   -0.00391346

     Total force =     0.054646     Total SCF correction =     0.000080


     Computing stress (Cartesian axis) and pressure

          total   stress  (Ry/bohr**3)                   (kbar)     P=       -8.67
  -0.00011625   0.00000000   0.00000000          -17.10        0.00        0.00
   0.00000000  -0.00005813  -0.00000000            0.00       -8.55       -0.00
   0.00000000  -0.00000000  -0.00000237            0.00       -0.00       -0.35

     Energy error            =      1.3E-02 Ry
     Gradient error          =      1.4E-02 Ry/Bohr

     number of scf cycles    =   3
     number of bfgs steps    =   2

     energy             old  =    -278.6965418971 Ry
     energy             new  =    -278.7099295074 Ry

     CASE: energy            _new < energy            _old

     new trust radius        =       0.0176554056 bohr
     new conv_thr            =       0.0000000137 Ry


ATOMIC_POSITIONS (crystal)
O                0.0000000000        0.6621803363        0.0606575905
O                0.0000000000        0.3378196584        0.5606575892
O                0.5000000000        0.1621803067        0.0606576132
O                0.5000000000        0.8378196931        0.5606576171
O                0.5000000000        0.8304724219        0.9344568331
O                0.5000000000        0.1695275837        0.4344568132
O                0.0000000000        0.3304724182        0.9344568399
O                0.0000000000        0.6695275856        0.4344568207
H                0.0000000000        0.6628809571        0.1965399794
H                0.0000000000        0.3371190441        0.6965399777
H                0.5000000000        0.1628809420        0.1965400170
H                0.5000000000        0.8371190620        0.6965400228
H                0.0000000000        0.5403743233        0.0200350931
H                0.0000000000        0.4596256727        0.5200350886
H                0.5000000000        0.0403742967        0.0200350993
H                0.5000000000        0.9596257038        0.5200350962
H                0.6786640197        0.7718763738        0.9831552483
H                0.3213359853        0.2281236253        0.4831552440
H                0.6786640147        0.2281236253        0.4831552440
H                0.3213359803        0.7718763738        0.9831552483
H                0.1786640212        0.2718763710        0.9831552500
H                0.8213359850        0.7281236272        0.4831552452
H                0.1786640150        0.7281236272        0.4831552452
H                0.8213359788        0.2718763710        0.9831552500



     Writing config-only to output data dir ./iceIh_vdw/iceIh_vdw.save/ :
     XML data file
     NEW-OLD atomic charge density approx. for the potential

     total cpu time spent up to now is      414.8 secs

     per-process dynamical memory:    61.3 Mb

     Self-consistent Calculation

     iteration #  1     ecut=    90.00 Ry     beta= 0.70
     Davidson diagonalization with overlap
     ethr =  1.00E-06,  avg # of iterations =  4.0

     total cpu time spent up to now is      429.6 secs

     total energy              =    -278.71140690 Ry
     estimated scf accuracy    <       0.00068396 Ry

     iteration #  2     ecut=    90.00 Ry     beta= 0.70
     Davidson diagonalization with overlap
     ethr =  1.07E-06,  avg # of iterations =  3.0

     total cpu time spent up to now is      441.2 secs

     total energy              =    -278.71156407 Ry
     estimated scf accuracy    <       0.00030974 Ry

     iteration #  3     ecut=    90.00 Ry     beta= 0.70
     Davidson diagonalization with overlap
     ethr =  4.84E-07,  avg # of iterations =  3.0

     total cpu time spent up to now is      451.2 secs

     total energy              =    -278.71162963 Ry
     estimated scf accuracy    <       0.00000730 Ry

     iteration #  4     ecut=    90.00 Ry     beta= 0.70
     Davidson diagonalization with overlap
     ethr =  1.14E-08,  avg # of iterations =  3.8

     total cpu time spent up to now is      464.0 secs

     total energy              =    -278.71163281 Ry
     estimated scf accuracy    <       0.00000499 Ry

     iteration #  5     ecut=    90.00 Ry     beta= 0.70
     Davidson diagonalization with overlap
     ethr =  7.80E-09,  avg # of iterations =  2.0

     total cpu time spent up to now is      473.2 secs

     total energy              =    -278.71163327 Ry
     estimated scf accuracy    <       0.00000064 Ry

     iteration #  6     ecut=    90.00 Ry     beta= 0.70
     Davidson diagonalization with overlap
     ethr =  1.00E-09,  avg # of iterations =  3.0

     total cpu time spent up to now is      485.2 secs

     total energy              =    -278.71163354 Ry
     estimated scf accuracy    <       0.00000025 Ry

     iteration #  7     ecut=    90.00 Ry     beta= 0.70
     Davidson diagonalization with overlap
     ethr =  3.91E-10,  avg # of iterations =  2.0

     total cpu time spent up to now is      494.1 secs

     total energy              =    -278.71163356 Ry
     estimated scf accuracy    <       0.00000002 Ry

     iteration #  8     ecut=    90.00 Ry     beta= 0.70
     Davidson diagonalization with overlap
     ethr =  2.71E-11,  avg # of iterations =  4.0

     total cpu time spent up to now is      506.6 secs

     End of self-consistent calculation

     Number of k-points >= 100: set verbosity='high' to print the bands.

     highest occupied level (ev):    -3.9008

!    total energy              =    -278.71163357 Ry
     estimated scf accuracy    <          2.6E-09 Ry

     The total energy is the sum of the following terms:
     one-electron contribution =    -239.50357756 Ry
     hartree contribution      =     140.48695072 Ry
     xc contribution           =     -70.57850407 Ry
     ewald contribution        =    -109.11650266 Ry

     convergence has been achieved in   8 iterations

     Forces acting on atoms (cartesian axes, Ry/au):

     atom    1 type  2   force =     0.00000000    0.00454621    0.00075399
     atom    2 type  2   force =     0.00000000   -0.00454617    0.00075399
     atom    3 type  2   force =     0.00000000    0.00454625    0.00075409
     atom    4 type  2   force =     0.00000000   -0.00454622    0.00075410
     atom    5 type  2   force =     0.00000000    0.01066031   -0.00224500
     atom    6 type  2   force =     0.00000000   -0.01066031   -0.00224497
     atom    7 type  2   force =     0.00000000    0.01066035   -0.00224503
     atom    8 type  2   force =     0.00000000   -0.01066035   -0.00224501
     atom    9 type  1   force =     0.00000000   -0.00247862   -0.00295952
     atom   10 type  1   force =     0.00000000    0.00247862   -0.00295952
     atom   11 type  1   force =     0.00000000   -0.00247865   -0.00295969
     atom   12 type  1   force =     0.00000000    0.00247866   -0.00295971
     atom   13 type  1   force =     0.00000000    0.00242896    0.00136358
     atom   14 type  1   force =     0.00000000   -0.00242899    0.00136358
     atom   15 type  1   force =     0.00000000    0.00242899    0.00136362
     atom   16 type  1   force =     0.00000000   -0.00242902    0.00136363
     atom   17 type  1   force =    -0.00088464   -0.00788640    0.00154348
     atom   18 type  1   force =     0.00088464    0.00788640    0.00154347
     atom   19 type  1   force =    -0.00088464    0.00788640    0.00154347
     atom   20 type  1   force =     0.00088464   -0.00788640    0.00154348
     atom   21 type  1   force =    -0.00088464   -0.00788642    0.00154349
     atom   22 type  1   force =     0.00088463    0.00788642    0.00154349
     atom   23 type  1   force =    -0.00088463    0.00788642    0.00154349
     atom   24 type  1   force =     0.00088464   -0.00788642    0.00154349

     Total force =     0.034252     Total SCF correction =     0.000041


     Computing stress (Cartesian axis) and pressure

          total   stress  (Ry/bohr**3)                   (kbar)     P=        0.47
  -0.00001631   0.00000000   0.00000000           -2.40        0.00        0.00
   0.00000000   0.00002084   0.00000000            0.00        3.07        0.00
   0.00000000   0.00000000   0.00000513            0.00        0.00        0.76

     Energy error            =      1.7E-03 Ry
     Gradient error          =      1.1E-02 Ry/Bohr

     number of scf cycles    =   4
     number of bfgs steps    =   3

     energy             old  =    -278.7099295074 Ry
     energy             new  =    -278.7116335681 Ry

     CASE: energy            _new < energy            _old

     new trust radius        =       0.0108899372 bohr
     new conv_thr            =       0.0000000107 Ry


ATOMIC_POSITIONS (crystal)
O                0.0000000000        0.6625013131        0.0606647642
O                0.0000000000        0.3374986826        0.5606647630
O                0.5000000000        0.1625012882        0.0606647887
O                0.5000000000        0.8374987117        0.5606647927
O                0.5000000000        0.8310938428        0.9346152810
O                0.5000000000        0.1689061620        0.4346152631
O                0.0000000000        0.3310938407        0.9346152861
O                0.0000000000        0.6689061623        0.4346152692
H                0.0000000000        0.6626238226        0.1962281881
H                0.0000000000        0.3373761785        0.6962281882
H                0.5000000000        0.1626238030        0.1962282162
H                0.5000000000        0.8373762018        0.6962282221
H                0.0000000000        0.5407596512        0.0202317517
H                0.0000000000        0.4592403445        0.5202317469
H                0.5000000000        0.0407596266        0.0202317634
H                0.5000000000        0.9592403734        0.5202317612
H                0.6778458369        0.7713114244        0.9831300037
H                0.3221541654        0.2286885747        0.4831299987
H                0.6778458346        0.2286885747        0.4831299987
H                0.3221541631        0.7713114244        0.9831300037
H                0.1778458360        0.2713114209        0.9831300064
H                0.8221541667        0.7286885775        0.4831300012
H                0.1778458333        0.7286885775        0.4831300012
H                0.8221541640        0.2713114209        0.9831300064



     Writing config-only to output data dir ./iceIh_vdw/iceIh_vdw.save/ :
     XML data file
     NEW-OLD atomic charge density approx. for the potential

     total cpu time spent up to now is      516.7 secs

     per-process dynamical memory:    61.4 Mb

     Self-consistent Calculation

     iteration #  1     ecut=    90.00 Ry     beta= 0.70
     Davidson diagonalization with overlap
     ethr =  1.00E-06,  avg # of iterations =  3.0

     total cpu time spent up to now is      530.0 secs

     total energy              =    -278.71258193 Ry
     estimated scf accuracy    <       0.00006848 Ry

     iteration #  2     ecut=    90.00 Ry     beta= 0.70
     Davidson diagonalization with overlap
     ethr =  1.07E-07,  avg # of iterations =  2.4

     total cpu time spent up to now is      540.2 secs

     total energy              =    -278.71259392 Ry
     estimated scf accuracy    <       0.00001207 Ry

     iteration #  3     ecut=    90.00 Ry     beta= 0.70
     Davidson diagonalization with overlap
     ethr =  1.89E-08,  avg # of iterations =  3.0

     total cpu time spent up to now is      551.1 secs

     total energy              =    -278.71259747 Ry
     estimated scf accuracy    <       0.00000276 Ry

     iteration #  4     ecut=    90.00 Ry     beta= 0.70
     Davidson diagonalization with overlap
     ethr =  4.31E-09,  avg # of iterations =  2.0

     total cpu time spent up to now is      559.9 secs

     total energy              =    -278.71259782 Ry
     estimated scf accuracy    <       0.00000012 Ry

     iteration #  5     ecut=    90.00 Ry     beta= 0.70
     Davidson diagonalization with overlap
     ethr =  1.83E-10,  avg # of iterations =  5.0

     total cpu time spent up to now is      574.0 secs

     total energy              =    -278.71259788 Ry
     estimated scf accuracy    <       0.00000014 Ry

     iteration #  6     ecut=    90.00 Ry     beta= 0.70
     Davidson diagonalization with overlap
     ethr =  1.83E-10,  avg # of iterations =  3.0

     total cpu time spent up to now is      583.7 secs

     End of self-consistent calculation

     Number of k-points >= 100: set verbosity='high' to print the bands.

     highest occupied level (ev):    -3.9111

!    total energy              =    -278.71259790 Ry
     estimated scf accuracy    <          2.9E-09 Ry

     The total energy is the sum of the following terms:
     one-electron contribution =    -239.57254829 Ry
     hartree contribution      =     140.51531922 Ry
     xc contribution           =     -70.58411147 Ry
     ewald contribution        =    -109.07125736 Ry

     convergence has been achieved in   6 iterations

     Forces acting on atoms (cartesian axes, Ry/au):

     atom    1 type  2   force =     0.00000000    0.00442188   -0.00161122
     atom    2 type  2   force =     0.00000000   -0.00442186   -0.00161120
     atom    3 type  2   force =     0.00000000    0.00442188   -0.00161124
     atom    4 type  2   force =     0.00000000   -0.00442186   -0.00161122
     atom    5 type  2   force =     0.00000000    0.00651953    0.00009346
     atom    6 type  2   force =     0.00000000   -0.00651953    0.00009349
     atom    7 type  2   force =     0.00000000    0.00651955    0.00009344
     atom    8 type  2   force =     0.00000000   -0.00651954    0.00009347
     atom    9 type  1   force =     0.00000000   -0.00145746    0.00047775
     atom   10 type  1   force =     0.00000000    0.00145745    0.00047773
     atom   11 type  1   force =     0.00000000   -0.00145747    0.00047770
     atom   12 type  1   force =     0.00000000    0.00145747    0.00047768
     atom   13 type  1   force =     0.00000000    0.00101992    0.00025364
     atom   14 type  1   force =     0.00000000   -0.00101993    0.00025364
     atom   15 type  1   force =     0.00000000    0.00101996    0.00025367
     atom   16 type  1   force =     0.00000000   -0.00101998    0.00025368
     atom   17 type  1   force =    -0.00012590   -0.00550271    0.00039319
     atom   18 type  1   force =     0.00012590    0.00550270    0.00039318
     atom   19 type  1   force =    -0.00012590    0.00550270    0.00039318
     atom   20 type  1   force =     0.00012590   -0.00550271    0.00039319
     atom   21 type  1   force =    -0.00012590   -0.00550271    0.00039320
     atom   22 type  1   force =     0.00012590    0.00550271    0.00039319
     atom   23 type  1   force =    -0.00012590    0.00550271    0.00039319
     atom   24 type  1   force =     0.00012590   -0.00550271    0.00039320

     Total force =     0.022717     Total SCF correction =     0.000085


     Computing stress (Cartesian axis) and pressure

          total   stress  (Ry/bohr**3)                   (kbar)     P=        1.36
  -0.00001309   0.00000000   0.00000000           -1.93        0.00        0.00
   0.00000000   0.00002188   0.00000000            0.00        3.22        0.00
   0.00000000   0.00000000   0.00001890            0.00        0.00        2.78

     Energy error            =      9.6E-04 Ry
     Gradient error          =      6.5E-03 Ry/Bohr

     number of scf cycles    =   5
     number of bfgs steps    =   4

     energy             old  =    -278.7116335681 Ry
     energy             new  =    -278.7125979015 Ry

     CASE: energy            _new < energy            _old

     new trust radius        =       0.0119789309 bohr
     new conv_thr            =       0.0000000065 Ry


ATOMIC_POSITIONS (crystal)
O                0.0000000000        0.6630019633        0.0604713658
O                0.0000000000        0.3369980331        0.5604713666
O                0.5000000000        0.1630019410        0.0604713849
O                0.5000000000        0.8369980593        0.5604713897
O                0.5000000000        0.8317469159        0.9349329903
O                0.5000000000        0.1682530887        0.4349329757
O                0.0000000000        0.3317469143        0.9349329932
O                0.0000000000        0.6682530887        0.4349329801
H                0.0000000000        0.6623570460        0.1961233792
H                0.0000000000        0.3376429551        0.6961233795
H                0.5000000000        0.1623570225        0.1961234028
H                0.5000000000        0.8376429831        0.6961234080
H                0.0000000000        0.5411176711        0.0203797567
H                0.0000000000        0.4588823246        0.5203797517
H                0.5000000000        0.0411176508        0.0203797745
H                0.5000000000        0.9588823483        0.5203797732
H                0.6770419170        0.7706516914        0.9830462504
H                0.3229580834        0.2293483075        0.4830462443
H                0.6770419166        0.2293483075        0.4830462443
H                0.3229580830        0.7706516914        0.9830462504
H                0.1770419137        0.2706516875        0.9830462542
H                0.8229580869        0.7293483108        0.4830462481
H                0.1770419131        0.7293483108        0.4830462481
H                0.8229580863        0.2706516875        0.9830462542



     Writing config-only to output data dir ./iceIh_vdw/iceIh_vdw.save/ :
     XML data file
     NEW-OLD atomic charge density approx. for the potential

     total cpu time spent up to now is      593.8 secs

     per-process dynamical memory:    61.3 Mb

     Self-consistent Calculation

     iteration #  1     ecut=    90.00 Ry     beta= 0.70
     Davidson diagonalization with overlap
     ethr =  1.00E-06,  avg # of iterations =  4.0

     total cpu time spent up to now is      607.9 secs

     total energy              =    -278.71322404 Ry
     estimated scf accuracy    <       0.00009986 Ry

     iteration #  2     ecut=    90.00 Ry     beta= 0.70
     Davidson diagonalization with overlap
     ethr =  1.56E-07,  avg # of iterations =  2.0

     total cpu time spent up to now is      618.1 secs

     total energy              =    -278.71324118 Ry
     estimated scf accuracy    <       0.00001473 Ry

     iteration #  3     ecut=    90.00 Ry     beta= 0.70
     Davidson diagonalization with overlap
     ethr =  2.30E-08,  avg # of iterations =  2.0

     total cpu time spent up to now is      628.3 secs

     total energy              =    -278.71324509 Ry
     estimated scf accuracy    <       0.00000151 Ry

     iteration #  4     ecut=    90.00 Ry     beta= 0.70
     Davidson diagonalization with overlap
     ethr =  2.36E-09,  avg # of iterations =  2.0

     total cpu time spent up to now is      636.8 secs

     total energy              =    -278.71324521 Ry
     estimated scf accuracy    <       0.00000014 Ry

     iteration #  5     ecut=    90.00 Ry     beta= 0.70
     Davidson diagonalization with overlap
     ethr =  2.22E-10,  avg # of iterations =  3.0

     total cpu time spent up to now is      648.5 secs

     total energy              =    -278.71324526 Ry
     estimated scf accuracy    <       0.00000005 Ry

     iteration #  6     ecut=    90.00 Ry     beta= 0.70
     Davidson diagonalization with overlap
     ethr =  8.13E-11,  avg # of iterations =  2.0

     total cpu time spent up to now is      658.0 secs

     End of self-consistent calculation

     Number of k-points >= 100: set verbosity='high' to print the bands.

     highest occupied level (ev):    -3.9178

!    total energy              =    -278.71324527 Ry
     estimated scf accuracy    <          1.8E-09 Ry

     The total energy is the sum of the following terms:
     one-electron contribution =    -239.51261190 Ry
     hartree contribution      =     140.48586294 Ry
     xc contribution           =     -70.57711919 Ry
     ewald contribution        =    -109.10937711 Ry

     convergence has been achieved in   6 iterations

     Forces acting on atoms (cartesian axes, Ry/au):

     atom    1 type  2   force =     0.00000000    0.00228371    0.00021051
     atom    2 type  2   force =     0.00000000   -0.00228369    0.00021051
     atom    3 type  2   force =     0.00000000    0.00228374    0.00021055
     atom    4 type  2   force =     0.00000000   -0.00228372    0.00021055
     atom    5 type  2   force =     0.00000000    0.00232638    0.00193172
     atom    6 type  2   force =     0.00000000   -0.00232638    0.00193173
     atom    7 type  2   force =     0.00000000    0.00232638    0.00193171
     atom    8 type  2   force =     0.00000000   -0.00232638    0.00193172
     atom    9 type  1   force =     0.00000000   -0.00011184   -0.00026821
     atom   10 type  1   force =     0.00000000    0.00011184   -0.00026821
     atom   11 type  1   force =     0.00000000   -0.00011183   -0.00026826
     atom   12 type  1   force =     0.00000000    0.00011183   -0.00026826
     atom   13 type  1   force =     0.00000000    0.00121616   -0.00062224
     atom   14 type  1   force =     0.00000000   -0.00121617   -0.00062223
     atom   15 type  1   force =     0.00000000    0.00121615   -0.00062225
     atom   16 type  1   force =     0.00000000   -0.00121616   -0.00062225
     atom   17 type  1   force =     0.00079005   -0.00303914   -0.00062589
     atom   18 type  1   force =    -0.00079005    0.00303914   -0.00062589
     atom   19 type  1   force =     0.00079005    0.00303914   -0.00062589
     atom   20 type  1   force =    -0.00079005   -0.00303914   -0.00062589
     atom   21 type  1   force =     0.00079005   -0.00303914   -0.00062588
     atom   22 type  1   force =    -0.00079005    0.00303914   -0.00062588
     atom   23 type  1   force =     0.00079005    0.00303914   -0.00062588
     atom   24 type  1   force =    -0.00079005   -0.00303914   -0.00062588

     Total force =     0.012142     Total SCF correction =     0.000067


     Computing stress (Cartesian axis) and pressure

          total   stress  (Ry/bohr**3)                   (kbar)     P=        0.98
  -0.00000773   0.00000000   0.00000000           -1.14        0.00        0.00
   0.00000000   0.00001607   0.00000000            0.00        2.36        0.00
   0.00000000   0.00000000   0.00001165            0.00        0.00        1.71

     Energy error            =      6.5E-04 Ry
     Gradient error          =      3.0E-03 Ry/Bohr

     number of scf cycles    =   6
     number of bfgs steps    =   5

     energy             old  =    -278.7125979015 Ry
     energy             new  =    -278.7132452662 Ry

     CASE: energy            _new < energy            _old

     new trust radius        =       0.0127451599 bohr
     new conv_thr            =       0.0000000030 Ry


ATOMIC_POSITIONS (crystal)
O                0.0000000000        0.6635318337        0.0603931801
O                0.0000000000        0.3364681641        0.5603931811
O                0.5000000000        0.1635318179        0.0603931997
O                0.5000000000        0.8364681828        0.5603932047
O                0.5000000000        0.8323548082        0.9355071277
O                0.5000000000        0.1676451950        0.4355071164
O                0.0000000000        0.3323548067        0.9355071286
O                0.0000000000        0.6676451951        0.4355071192
H                0.0000000000        0.6621492447        0.1959443613
H                0.0000000000        0.3378507566        0.6959443632
H                0.5000000000        0.1621492188        0.1959443761
H                0.5000000000        0.8378507874        0.6959443812
H                0.0000000000        0.5416060651        0.0204428842
H                0.0000000000        0.4583939298        0.5204428796
H                0.5000000000        0.0416060459        0.0204429053
H                0.5000000000        0.9583939526        0.5204429048
H                0.6763947172        0.7698953364        0.9828562201
H                0.3236052813        0.2301046627        0.4828562132
H                0.6763947187        0.2301046627        0.4828562132
H                0.3236052828        0.7698953364        0.9828562201
H                0.1763947119        0.2698953325        0.9828562248
H                0.8236052863        0.7301046662        0.4828562183
H                0.1763947137        0.7301046662        0.4828562183
H                0.8236052881        0.2698953325        0.9828562248



     Writing config-only to output data dir ./iceIh_vdw/iceIh_vdw.save/ :
     XML data file
     NEW-OLD atomic charge density approx. for the potential

     total cpu time spent up to now is      668.1 secs

     per-process dynamical memory:    61.3 Mb

     Self-consistent Calculation

     iteration #  1     ecut=    90.00 Ry     beta= 0.70
     Davidson diagonalization with overlap
     ethr =  1.00E-06,  avg # of iterations =  4.0

     total cpu time spent up to now is      682.7 secs

     total energy              =    -278.71352000 Ry
     estimated scf accuracy    <       0.00011778 Ry

     iteration #  2     ecut=    90.00 Ry     beta= 0.70
     Davidson diagonalization with overlap
     ethr =  1.84E-07,  avg # of iterations =  2.0

     total cpu time spent up to now is      691.6 secs

     total energy              =    -278.71353499 Ry
     estimated scf accuracy    <       0.00000726 Ry

     iteration #  3     ecut=    90.00 Ry     beta= 0.70
     Davidson diagonalization with overlap
     ethr =  1.13E-08,  avg # of iterations =  2.3

     total cpu time spent up to now is      701.9 secs

     total energy              =    -278.71353673 Ry
     estimated scf accuracy    <       0.00000104 Ry

     iteration #  4     ecut=    90.00 Ry     beta= 0.70
     Davidson diagonalization with overlap
     ethr =  1.62E-09,  avg # of iterations =  2.0

     total cpu time spent up to now is      711.7 secs

     total energy              =    -278.71353696 Ry
     estimated scf accuracy    <       0.00000008 Ry

     iteration #  5     ecut=    90.00 Ry     beta= 0.70
     Davidson diagonalization with overlap
     ethr =  1.24E-10,  avg # of iterations =  2.9

     total cpu time spent up to now is      722.6 secs

     total energy              =    -278.71353697 Ry
     estimated scf accuracy    <       0.00000002 Ry

     iteration #  6     ecut=    90.00 Ry     beta= 0.70
     Davidson diagonalization with overlap
     ethr =  3.48E-11,  avg # of iterations =  2.5

     total cpu time spent up to now is      731.9 secs

     End of self-consistent calculation

     Number of k-points >= 100: set verbosity='high' to print the bands.

     highest occupied level (ev):    -3.9257

!    total energy              =    -278.71353697 Ry
     estimated scf accuracy    <          2.5E-09 Ry

     The total energy is the sum of the following terms:
     one-electron contribution =    -239.50094333 Ry
     hartree contribution      =     140.47865971 Ry
     xc contribution           =     -70.57494857 Ry
     ewald contribution        =    -109.11630478 Ry

     convergence has been achieved in   6 iterations

     Forces acting on atoms (cartesian axes, Ry/au):

     atom    1 type  2   force =     0.00000000    0.00067996   -0.00010848
     atom    2 type  2   force =     0.00000000   -0.00067998   -0.00010847
     atom    3 type  2   force =     0.00000000    0.00067992   -0.00010855
     atom    4 type  2   force =     0.00000000   -0.00067992   -0.00010855
     atom    5 type  2   force =     0.00000000   -0.00158118    0.00293659
     atom    6 type  2   force =     0.00000000    0.00158118    0.00293660
     atom    7 type  2   force =     0.00000000   -0.00158119    0.00293658
     atom    8 type  2   force =     0.00000000    0.00158119    0.00293659
     atom    9 type  1   force =     0.00000000    0.00096731    0.00089083
     atom   10 type  1   force =     0.00000000   -0.00096731    0.00089082
     atom   11 type  1   force =     0.00000000    0.00096734    0.00089088
     atom   12 type  1   force =     0.00000000   -0.00096734    0.00089088
     atom   13 type  1   force =     0.00000000    0.00084077   -0.00125179
     atom   14 type  1   force =     0.00000000   -0.00084076   -0.00125179
     atom   15 type  1   force =     0.00000000    0.00084080   -0.00125181
     atom   16 type  1   force =     0.00000000   -0.00084080   -0.00125181
     atom   17 type  1   force =     0.00140755   -0.00062165   -0.00123356
     atom   18 type  1   force =    -0.00140754    0.00062165   -0.00123356
     atom   19 type  1   force =     0.00140754    0.00062165   -0.00123356
     atom   20 type  1   force =    -0.00140755   -0.00062165   -0.00123356
     atom   21 type  1   force =     0.00140756   -0.00062164   -0.00123356
     atom   22 type  1   force =    -0.00140755    0.00062164   -0.00123356
     atom   23 type  1   force =     0.00140755    0.00062164   -0.00123356
     atom   24 type  1   force =    -0.00140756   -0.00062164   -0.00123356

     Total force =     0.009671     Total SCF correction =     0.000152


     Computing stress (Cartesian axis) and pressure

          total   stress  (Ry/bohr**3)                   (kbar)     P=        1.04
  -0.00000298   0.00000000   0.00000000           -0.44        0.00        0.00
   0.00000000   0.00001173   0.00000000            0.00        1.73        0.00
   0.00000000   0.00000000   0.00001250            0.00        0.00        1.84

     Energy error            =      2.9E-04 Ry
     Gradient error          =      2.9E-03 Ry/Bohr

     number of scf cycles    =   7
     number of bfgs steps    =   6

     energy             old  =    -278.7132452662 Ry
     energy             new  =    -278.7135369716 Ry

     CASE: energy            _new < energy            _old

     new trust radius        =       0.0049003515 bohr
     new conv_thr            =       0.0000000029 Ry


ATOMIC_POSITIONS (crystal)
O                0.0000000000        0.6637178867        0.0603713734
O                0.0000000000        0.3362821107        0.5603713756
O                0.5000000000        0.1637178692        0.0603713884
O                0.5000000000        0.8362821316        0.5603713937
O                0.5000000000        0.8324267612        0.9358515285
O                0.5000000000        0.1675732414        0.4358515185
O                0.0000000000        0.3324267590        0.9358515280
O                0.0000000000        0.6675732424        0.4358515200
H                0.0000000000        0.6621631423        0.1959577634
H                0.0000000000        0.3378368591        0.6959577647
H                0.5000000000        0.1621631176        0.1959577797
H                0.5000000000        0.8378368886        0.6959577844
H                0.0000000000        0.5417942404        0.0203666547
H                0.0000000000        0.4582057552        0.5203666502
H                0.5000000000        0.0417942245        0.0203666757
H                0.5000000000        0.9582057740        0.5203666753
H                0.6764256621        0.7696403795        0.9827263373
H                0.3235743366        0.2303596197        0.4827263302
H                0.6764256634        0.2303596197        0.4827263302
H                0.3235743379        0.7696403795        0.9827263373
H                0.1764256574        0.2696403758        0.9827263424
H                0.8235743412        0.7303596229        0.4827263360
H                0.1764256588        0.7303596229        0.4827263360
H                0.8235743426        0.2696403758        0.9827263424



     Writing config-only to output data dir ./iceIh_vdw/iceIh_vdw.save/ :
     XML data file
     NEW-OLD atomic charge density approx. for the potential

     total cpu time spent up to now is      742.0 secs

     per-process dynamical memory:    61.3 Mb

     Self-consistent Calculation

     iteration #  1     ecut=    90.00 Ry     beta= 0.70
     Davidson diagonalization with overlap
     ethr =  1.00E-06,  avg # of iterations =  3.0

     Threshold (ethr) on eigenvalues was too large:
     Diagonalizing with lowered threshold

     Davidson diagonalization with overlap
     ethr =  2.85E-08,  avg # of iterations =  2.9

     total cpu time spent up to now is      763.5 secs

     total energy              =    -278.71362874 Ry
     estimated scf accuracy    <       0.00002171 Ry

     iteration #  2     ecut=    90.00 Ry     beta= 0.70
     Davidson diagonalization with overlap
     ethr =  3.39E-08,  avg # of iterations =  2.0

     total cpu time spent up to now is      773.4 secs

     total energy              =    -278.71363201 Ry
     estimated scf accuracy    <       0.00000344 Ry

     iteration #  3     ecut=    90.00 Ry     beta= 0.70
     Davidson diagonalization with overlap
     ethr =  5.38E-09,  avg # of iterations =  2.9

     total cpu time spent up to now is      784.4 secs

     total energy              =    -278.71363296 Ry
     estimated scf accuracy    <       0.00000057 Ry

     iteration #  4     ecut=    90.00 Ry     beta= 0.70
     Davidson diagonalization with overlap
     ethr =  8.95E-10,  avg # of iterations =  2.0

     total cpu time spent up to now is      793.1 secs

     total energy              =    -278.71363302 Ry
     estimated scf accuracy    <       0.00000003 Ry

     iteration #  5     ecut=    90.00 Ry     beta= 0.70
     Davidson diagonalization with overlap
     ethr =  5.15E-11,  avg # of iterations =  4.9

     total cpu time spent up to now is      807.1 secs

     total energy              =    -278.71363303 Ry
     estimated scf accuracy    <       0.00000004 Ry

     iteration #  6     ecut=    90.00 Ry     beta= 0.70
     Davidson diagonalization with overlap
     ethr =  5.15E-11,  avg # of iterations =  3.1

     total cpu time spent up to now is      817.6 secs

     End of self-consistent calculation

     Number of k-points >= 100: set verbosity='high' to print the bands.

     highest occupied level (ev):    -3.9278

!    total energy              =    -278.71363304 Ry
     estimated scf accuracy    <          5.8E-10 Ry

     The total energy is the sum of the following terms:
     one-electron contribution =    -239.48282748 Ry
     hartree contribution      =     140.47038875 Ry
     xc contribution           =     -70.57289030 Ry
     ewald contribution        =    -109.12830402 Ry

     convergence has been achieved in   6 iterations

     Forces acting on atoms (cartesian axes, Ry/au):

     atom    1 type  2   force =     0.00000000    0.00020849    0.00025391
     atom    2 type  2   force =     0.00000000   -0.00020849    0.00025389
     atom    3 type  2   force =     0.00000000    0.00020852    0.00025394
     atom    4 type  2   force =     0.00000000   -0.00020853    0.00025393
     atom    5 type  2   force =     0.00000000   -0.00197869    0.00241080
     atom    6 type  2   force =     0.00000000    0.00197868    0.00241080
     atom    7 type  2   force =     0.00000000   -0.00197870    0.00241081
     atom    8 type  2   force =     0.00000000    0.00197869    0.00241080
     atom    9 type  1   force =     0.00000000    0.00108526    0.00053437
     atom   10 type  1   force =     0.00000000   -0.00108526    0.00053438
     atom   11 type  1   force =     0.00000000    0.00108528    0.00053436
     atom   12 type  1   force =     0.00000000   -0.00108529    0.00053436
     atom   13 type  1   force =     0.00000000    0.00079057   -0.00113049
     atom   14 type  1   force =     0.00000000   -0.00079057   -0.00113048
     atom   15 type  1   force =     0.00000000    0.00079054   -0.00113052
     atom   16 type  1   force =     0.00000000   -0.00079053   -0.00113052
     atom   17 type  1   force =     0.00125806   -0.00023268   -0.00103429
     atom   18 type  1   force =    -0.00125806    0.00023268   -0.00103429
     atom   19 type  1   force =     0.00125806    0.00023268   -0.00103429
     atom   20 type  1   force =    -0.00125806   -0.00023268   -0.00103429
     atom   21 type  1   force =     0.00125806   -0.00023267   -0.00103430
     atom   22 type  1   force =    -0.00125806    0.00023267   -0.00103429
     atom   23 type  1   force =     0.00125806    0.00023267   -0.00103429
     atom   24 type  1   force =    -0.00125806   -0.00023267   -0.00103430

     Total force =     0.008629     Total SCF correction =     0.000041


     Computing stress (Cartesian axis) and pressure

          total   stress  (Ry/bohr**3)                   (kbar)     P=        0.79
  -0.00000269   0.00000000   0.00000000           -0.40        0.00        0.00
   0.00000000   0.00001033   0.00000000            0.00        1.52        0.00
   0.00000000   0.00000000   0.00000839            0.00        0.00        1.23

     Energy error            =      9.6E-05 Ry
     Gradient error          =      2.4E-03 Ry/Bohr

     number of scf cycles    =   8
     number of bfgs steps    =   7

     energy             old  =    -278.7135369716 Ry
     energy             new  =    -278.7136330396 Ry

     CASE: energy            _new < energy            _old

     new trust radius        =       0.0053903867 bohr
     new conv_thr            =       0.0000000010 Ry


ATOMIC_POSITIONS (crystal)
O                0.0000000000        0.6638758151        0.0603852487
O                0.0000000000        0.3361241830        0.5603852501
O                0.5000000000        0.1638758002        0.0603852656
O                0.5000000000        0.8361242007        0.5603852707
O                0.5000000000        0.8323963938        0.9362382719
O                0.5000000000        0.1676036080        0.4362382629
O                0.0000000000        0.3323963907        0.9362382708
O                0.0000000000        0.6676036099        0.4362382638
H                0.0000000000        0.6622397709        0.1959863228
H                0.0000000000        0.3377602307        0.6959863249
H                0.5000000000        0.1622397485        0.1959863367
H                0.5000000000        0.8377602575        0.6959863415
H                0.0000000000        0.5419907777        0.0202379062
H                0.0000000000        0.4580092177        0.5202379025
H                0.5000000000        0.0419907608        0.0202379244
H                0.5000000000        0.9580092379        0.5202379242
H                0.6766082542        0.7694083380        0.9825761230
H                0.3233917451        0.2305916615        0.4825761160
H                0.6766082549        0.2305916615        0.4825761160
H                0.3233917458        0.7694083380        0.9825761230
H                0.1766082504        0.2694083349        0.9825761281
H                0.8233917488        0.7305916642        0.4825761221
H                0.1766082512        0.7305916642        0.4825761221
H                0.8233917496        0.2694083349        0.9825761281



     Writing config-only to output data dir ./iceIh_vdw/iceIh_vdw.save/ :
     XML data file
     NEW-OLD atomic charge density approx. for the potential

     total cpu time spent up to now is      827.9 secs

     per-process dynamical memory:    61.3 Mb

     Self-consistent Calculation

     iteration #  1     ecut=    90.00 Ry     beta= 0.70
     Davidson diagonalization with overlap
     ethr =  1.00E-06,  avg # of iterations =  3.0

     Threshold (ethr) on eigenvalues was too large:
     Diagonalizing with lowered threshold

     Davidson diagonalization with overlap
     ethr =  3.37E-08,  avg # of iterations =  2.5

     total cpu time spent up to now is      849.0 secs

     total energy              =    -278.71372677 Ry
     estimated scf accuracy    <       0.00002391 Ry

     iteration #  2     ecut=    90.00 Ry     beta= 0.70
     Davidson diagonalization with overlap
     ethr =  3.74E-08,  avg # of iterations =  2.1

     total cpu time spent up to now is      859.0 secs

     total energy              =    -278.71373034 Ry
     estimated scf accuracy    <       0.00000524 Ry

     iteration #  3     ecut=    90.00 Ry     beta= 0.70
     Davidson diagonalization with overlap
     ethr =  8.18E-09,  avg # of iterations =  3.0

     total cpu time spent up to now is      869.9 secs

     total energy              =    -278.71373182 Ry
     estimated scf accuracy    <       0.00000067 Ry

     iteration #  4     ecut=    90.00 Ry     beta= 0.70
     Davidson diagonalization with overlap
     ethr =  1.04E-09,  avg # of iterations =  2.0

     total cpu time spent up to now is      878.1 secs

     total energy              =    -278.71373186 Ry
     estimated scf accuracy    <       0.00000006 Ry

     iteration #  5     ecut=    90.00 Ry     beta= 0.70
     Davidson diagonalization with overlap
     ethr =  9.09E-11,  avg # of iterations =  5.0

     total cpu time spent up to now is      891.5 secs

     total energy              =    -278.71373188 Ry
     estimated scf accuracy    <       0.00000006 Ry

     iteration #  6     ecut=    90.00 Ry     beta= 0.70
     Davidson diagonalization with overlap
     ethr =  9.09E-11,  avg # of iterations =  2.2

     total cpu time spent up to now is      900.7 secs

     total energy              =    -278.71373189 Ry
     estimated scf accuracy    <          2.4E-09 Ry

     iteration #  7     ecut=    90.00 Ry     beta= 0.70
     Davidson diagonalization with overlap
     ethr =  3.69E-12,  avg # of iterations =  5.4

     total cpu time spent up to now is      915.8 secs

     total energy              =    -278.71373189 Ry
     estimated scf accuracy    <          2.8E-09 Ry

     iteration #  8     ecut=    90.00 Ry     beta= 0.70
     Davidson diagonalization with overlap
     ethr =  3.69E-12,  avg # of iterations =  2.9

     total cpu time spent up to now is      925.4 secs

     End of self-consistent calculation

     Number of k-points >= 100: set verbosity='high' to print the bands.

     highest occupied level (ev):    -3.9307

!    total energy              =    -278.71373189 Ry
     estimated scf accuracy    <          9.4E-11 Ry

     The total energy is the sum of the following terms:
     one-electron contribution =    -239.47448379 Ry
     hartree contribution      =     140.46757357 Ry
     xc contribution           =     -70.57200470 Ry
     ewald contribution        =    -109.13481697 Ry

     convergence has been achieved in   8 iterations

     Forces acting on atoms (cartesian axes, Ry/au):

     atom    1 type  2   force =     0.00000000    0.00003405    0.00022181
     atom    2 type  2   force =     0.00000000   -0.00003406    0.00022182
     atom    3 type  2   force =     0.00000000    0.00003403    0.00022177
     atom    4 type  2   force =     0.00000000   -0.00003403    0.00022177
     atom    5 type  2   force =     0.00000000   -0.00179851    0.00147920
     atom    6 type  2   force =     0.00000000    0.00179851    0.00147920
     atom    7 type  2   force =     0.00000000   -0.00179852    0.00147919
     atom    8 type  2   force =     0.00000000    0.00179852    0.00147919
     atom    9 type  1   force =     0.00000000    0.00097879    0.00038444
     atom   10 type  1   force =     0.00000000   -0.00097879    0.00038444
     atom   11 type  1   force =     0.00000000    0.00097881    0.00038448
     atom   12 type  1   force =     0.00000000   -0.00097881    0.00038448
     atom   13 type  1   force =     0.00000000    0.00060832   -0.00081168
     atom   14 type  1   force =     0.00000000   -0.00060830   -0.00081168
     atom   15 type  1   force =     0.00000000    0.00060834   -0.00081169
     atom   16 type  1   force =     0.00000000   -0.00060833   -0.00081169
     atom   17 type  1   force =     0.00084853   -0.00012093   -0.00063688
     atom   18 type  1   force =    -0.00084853    0.00012093   -0.00063688
     atom   19 type  1   force =     0.00084853    0.00012093   -0.00063688
     atom   20 type  1   force =    -0.00084853   -0.00012093   -0.00063688
     atom   21 type  1   force =     0.00084854   -0.00012092   -0.00063688
     atom   22 type  1   force =    -0.00084853    0.00012092   -0.00063688
     atom   23 type  1   force =     0.00084853    0.00012092   -0.00063688
     atom   24 type  1   force =    -0.00084854   -0.00012092   -0.00063688

     Total force =     0.006289     Total SCF correction =     0.000011


     Computing stress (Cartesian axis) and pressure

          total   stress  (Ry/bohr**3)                   (kbar)     P=        0.64
  -0.00000290   0.00000000   0.00000000           -0.43        0.00        0.00
   0.00000000   0.00001033   0.00000000            0.00        1.52        0.00
   0.00000000   0.00000000   0.00000559            0.00        0.00        0.82

     Energy error            =      9.9E-05 Ry
     Gradient error          =      1.8E-03 Ry/Bohr

     number of scf cycles    =   9
     number of bfgs steps    =   8

     energy             old  =    -278.7136330396 Ry
     energy             new  =    -278.7137318922 Ry

     CASE: energy            _new < energy            _old

     new trust radius        =       0.0080855800 bohr
     new conv_thr            =       0.0000000010 Ry


ATOMIC_POSITIONS (crystal)
O                0.0000000000        0.6640810589        0.0604232138
O                0.0000000000        0.3359189379        0.5604232173
O                0.5000000000        0.1640810408        0.0604232229
O                0.5000000000        0.8359189603        0.5604232280
O                0.5000000000        0.8322325962        0.9367937014
O                0.5000000000        0.1677674045        0.4367936938
O                0.0000000000        0.3322325914        0.9367936986
O                0.0000000000        0.6677674083        0.4367936931
H                0.0000000000        0.6624242739        0.1960577872
H                0.0000000000        0.3375757278        0.6960577877
H                0.5000000000        0.1624242560        0.1960578053
H                0.5000000000        0.8375757492        0.6960578098
H                0.0000000000        0.5422763005        0.0200074643
H                0.0000000000        0.4577236967        0.5200074613
H                0.5000000000        0.0422762889        0.0200074794
H                0.5000000000        0.9577237103        0.5200074792
H                0.6769924755        0.7690907084        0.9823589157
H                0.3230075247        0.2309092914        0.4823589091
H                0.6769924753        0.2309092914        0.4823589091
H                0.3230075245        0.7690907084        0.9823589157
H                0.1769924737        0.2690907061        0.9823589210
H                0.8230075271        0.7309092932        0.4823589157
H                0.1769924729        0.7309092932        0.4823589157
H                0.8230075263        0.2690907061        0.9823589210



     Writing config-only to output data dir ./iceIh_vdw/iceIh_vdw.save/ :
     XML data file
     NEW-OLD atomic charge density approx. for the potential

     total cpu time spent up to now is      935.5 secs

     per-process dynamical memory:    61.3 Mb

     Self-consistent Calculation

     iteration #  1     ecut=    90.00 Ry     beta= 0.70
     Davidson diagonalization with overlap
     ethr =  1.00E-06,  avg # of iterations =  3.0

     Threshold (ethr) on eigenvalues was too large:
     Diagonalizing with lowered threshold

     Davidson diagonalization with overlap
     ethr =  7.61E-08,  avg # of iterations =  2.0

     total cpu time spent up to now is      956.7 secs

     total energy              =    -278.71380425 Ry
     estimated scf accuracy    <       0.00005223 Ry

     iteration #  2     ecut=    90.00 Ry     beta= 0.70
     Davidson diagonalization with overlap
     ethr =  8.16E-08,  avg # of iterations =  2.5

     total cpu time spent up to now is      967.0 secs

     total energy              =    -278.71381208 Ry
     estimated scf accuracy    <       0.00001285 Ry

     iteration #  3     ecut=    90.00 Ry     beta= 0.70
     Davidson diagonalization with overlap
     ethr =  2.01E-08,  avg # of iterations =  2.8

     total cpu time spent up to now is      978.0 secs

     total energy              =    -278.71381573 Ry
     estimated scf accuracy    <       0.00000132 Ry

     iteration #  4     ecut=    90.00 Ry     beta= 0.70
     Davidson diagonalization with overlap
     ethr =  2.06E-09,  avg # of iterations =  2.0

     total cpu time spent up to now is      986.0 secs

     total energy              =    -278.71381578 Ry
     estimated scf accuracy    <       0.00000016 Ry

     iteration #  5     ecut=    90.00 Ry     beta= 0.70
     Davidson diagonalization with overlap
     ethr =  2.50E-10,  avg # of iterations =  3.9

     total cpu time spent up to now is      998.5 secs

     total energy              =    -278.71381583 Ry
     estimated scf accuracy    <       0.00000012 Ry

     iteration #  6     ecut=    90.00 Ry     beta= 0.70
     Davidson diagonalization with overlap
     ethr =  1.92E-10,  avg # of iterations =  2.9

     total cpu time spent up to now is     1008.5 secs

     End of self-consistent calculation

     Number of k-points >= 100: set verbosity='high' to print the bands.

     highest occupied level (ev):    -3.9348

!    total energy              =    -278.71381585 Ry
     estimated scf accuracy    <          2.7E-10 Ry

     The total energy is the sum of the following terms:
     one-electron contribution =    -239.46186122 Ry
     hartree contribution      =     140.46341628 Ry
     xc contribution           =     -70.57073201 Ry
     ewald contribution        =    -109.14463891 Ry

     convergence has been achieved in   6 iterations

     Forces acting on atoms (cartesian axes, Ry/au):

     atom    1 type  2   force =     0.00000000    0.00001853    0.00011980
     atom    2 type  2   force =     0.00000000   -0.00001849    0.00011975
     atom    3 type  2   force =     0.00000000    0.00001862    0.00011992
     atom    4 type  2   force =     0.00000000   -0.00001862    0.00011991
     atom    5 type  2   force =     0.00000000   -0.00104105   -0.00012457
     atom    6 type  2   force =     0.00000000    0.00104105   -0.00012457
     atom    7 type  2   force =     0.00000000   -0.00104105   -0.00012455
     atom    8 type  2   force =     0.00000000    0.00104104   -0.00012455
     atom    9 type  1   force =     0.00000000    0.00062580    0.00003754
     atom   10 type  1   force =     0.00000000   -0.00062580    0.00003757
     atom   11 type  1   force =     0.00000000    0.00062580    0.00003745
     atom   12 type  1   force =     0.00000000   -0.00062581    0.00003745
     atom   13 type  1   force =     0.00000000    0.00030195   -0.00016672
     atom   14 type  1   force =     0.00000000   -0.00030197   -0.00016671
     atom   15 type  1   force =     0.00000000    0.00030187   -0.00016676
     atom   16 type  1   force =     0.00000000   -0.00030187   -0.00016676
     atom   17 type  1   force =     0.00007446   -0.00021603    0.00006698
     atom   18 type  1   force =    -0.00007446    0.00021603    0.00006698
     atom   19 type  1   force =     0.00007446    0.00021603    0.00006698
     atom   20 type  1   force =    -0.00007446   -0.00021603    0.00006698
     atom   21 type  1   force =     0.00007446   -0.00021603    0.00006697
     atom   22 type  1   force =    -0.00007446    0.00021603    0.00006698
     atom   23 type  1   force =     0.00007446    0.00021603    0.00006698
     atom   24 type  1   force =    -0.00007446   -0.00021603    0.00006697

     Total force =     0.002638     Total SCF correction =     0.000046


     Computing stress (Cartesian axis) and pressure

          total   stress  (Ry/bohr**3)                   (kbar)     P=        0.35
  -0.00000410   0.00000000   0.00000000           -0.60        0.00        0.00
   0.00000000   0.00001057   0.00000000            0.00        1.56        0.00
   0.00000000   0.00000000   0.00000068            0.00        0.00        0.10

     Energy error            =      8.4E-05 Ry
     Gradient error          =      1.0E-03 Ry/Bohr

     number of scf cycles    =  10
     number of bfgs steps    =   9

     energy             old  =    -278.7137318922 Ry
     energy             new  =    -278.7138158549 Ry

     CASE: energy            _new < energy            _old

     new trust radius        =       0.0022455652 bohr
     new conv_thr            =       0.0000000010 Ry


ATOMIC_POSITIONS (crystal)
O                0.0000000000        0.6641300900        0.0604406937
O                0.0000000000        0.3358699092        0.5604406935
O                0.5000000000        0.1641300792        0.0604407124
O                0.5000000000        0.8358699220        0.5604407167
O                0.5000000000        0.8321171546        0.9368988075
O                0.5000000000        0.1678828458        0.4368988000
O                0.0000000000        0.3321171500        0.9368988056
O                0.0000000000        0.6678828492        0.4368988001
H                0.0000000000        0.6625178695        0.1960821993
H                0.0000000000        0.3374821321        0.6960822023
H                0.5000000000        0.1625178533        0.1960822100
H                0.5000000000        0.8374821516        0.6960822148
H                0.0000000000        0.5423575494        0.0199387342
H                0.0000000000        0.4576424460        0.5199387325
H                0.5000000000        0.0423575325        0.0199387456
H                0.5000000000        0.9576424670        0.5199387455
H                0.6771112379        0.7690016640        0.9823197818
H                0.3228887626        0.2309983358        0.4823197756
H                0.6771112374        0.2309983358        0.4823197756
H                0.3228887621        0.7690016640        0.9823197818
H                0.1771112363        0.2690016620        0.9823197867
H                0.8228887644        0.7309983376        0.4823197820
H                0.1771112356        0.7309983376        0.4823197820
H                0.8228887637        0.2690016620        0.9823197867



     Writing config-only to output data dir ./iceIh_vdw/iceIh_vdw.save/ :
     XML data file
     NEW-OLD atomic charge density approx. for the potential

     total cpu time spent up to now is     1018.6 secs

     per-process dynamical memory:    61.3 Mb

     Self-consistent Calculation

     iteration #  1     ecut=    90.00 Ry     beta= 0.70
     Davidson diagonalization with overlap
     ethr =  1.00E-06,  avg # of iterations =  2.0

     Threshold (ethr) on eigenvalues was too large:
     Diagonalizing with lowered threshold

     Davidson diagonalization with overlap
     ethr =  4.58E-09,  avg # of iterations =  3.1

     total cpu time spent up to now is     1039.7 secs

     total energy              =    -278.71382494 Ry
     estimated scf accuracy    <       0.00000403 Ry

     iteration #  2     ecut=    90.00 Ry     beta= 0.70
     Davidson diagonalization with overlap
     ethr =  6.29E-09,  avg # of iterations =  3.0

     total cpu time spent up to now is     1050.8 secs

     total energy              =    -278.71382554 Ry
     estimated scf accuracy    <       0.00000146 Ry

     iteration #  3     ecut=    90.00 Ry     beta= 0.70
     Davidson diagonalization with overlap
     ethr =  2.27E-09,  avg # of iterations =  3.0

     total cpu time spent up to now is     1061.9 secs

     total energy              =    -278.71382595 Ry
     estimated scf accuracy    <       0.00000010 Ry

     iteration #  4     ecut=    90.00 Ry     beta= 0.70
     Davidson diagonalization with overlap
     ethr =  1.51E-10,  avg # of iterations =  2.0

     total cpu time spent up to now is     1070.1 secs

     total energy              =    -278.71382595 Ry
     estimated scf accuracy    <       0.00000002 Ry

     iteration #  5     ecut=    90.00 Ry     beta= 0.70
     Davidson diagonalization with overlap
     ethr =  3.15E-11,  avg # of iterations =  3.0

     total cpu time spent up to now is     1081.7 secs

     total energy              =    -278.71382595 Ry
     estimated scf accuracy    <          5.1E-09 Ry

     iteration #  6     ecut=    90.00 Ry     beta= 0.70
     Davidson diagonalization with overlap
     ethr =  8.00E-12,  avg # of iterations =  2.0

     total cpu time spent up to now is     1090.5 secs

     End of self-consistent calculation

     Number of k-points >= 100: set verbosity='high' to print the bands.

     highest occupied level (ev):    -3.9361

!    total energy              =    -278.71382596 Ry
     estimated scf accuracy    <          2.5E-10 Ry

     The total energy is the sum of the following terms:
     one-electron contribution =    -239.46188714 Ry
     hartree contribution      =     140.46389253 Ry
     xc contribution           =     -70.57080812 Ry
     ewald contribution        =    -109.14502323 Ry

     convergence has been achieved in   6 iterations

     Forces acting on atoms (cartesian axes, Ry/au):

     atom    1 type  2   force =     0.00000000    0.00009989    0.00001171
     atom    2 type  2   force =     0.00000000   -0.00009992    0.00001176
     atom    3 type  2   force =     0.00000000    0.00009982    0.00001158
     atom    4 type  2   force =     0.00000000   -0.00009982    0.00001159
     atom    5 type  2   force =     0.00000000   -0.00062903   -0.00056561
     atom    6 type  2   force =     0.00000000    0.00062903   -0.00056561
     atom    7 type  2   force =     0.00000000   -0.00062904   -0.00056562
     atom    8 type  2   force =     0.00000000    0.00062904   -0.00056561
     atom    9 type  1   force =     0.00000000    0.00045127   -0.00001095
     atom   10 type  1   force =     0.00000000   -0.00045127   -0.00001099
     atom   11 type  1   force =     0.00000000    0.00045128   -0.00001087
     atom   12 type  1   force =     0.00000000   -0.00045128   -0.00001088
     atom   13 type  1   force =     0.00000000    0.00017441    0.00005230
     atom   14 type  1   force =     0.00000000   -0.00017438    0.00005229
     atom   15 type  1   force =     0.00000000    0.00017450    0.00005232
     atom   16 type  1   force =     0.00000000   -0.00017450    0.00005232
     atom   17 type  1   force =    -0.00013067   -0.00032304    0.00025628
     atom   18 type  1   force =     0.00013067    0.00032304    0.00025628
     atom   19 type  1   force =    -0.00013067    0.00032304    0.00025628
     atom   20 type  1   force =     0.00013067   -0.00032304    0.00025628
     atom   21 type  1   force =    -0.00013067   -0.00032304    0.00025628
     atom   22 type  1   force =     0.00013068    0.00032304    0.00025628
     atom   23 type  1   force =    -0.00013068    0.00032304    0.00025628
     atom   24 type  1   force =     0.00013067   -0.00032304    0.00025628

     Total force =     0.002312     Total SCF correction =     0.000018


     Computing stress (Cartesian axis) and pressure

          total   stress  (Ry/bohr**3)                   (kbar)     P=        0.31
  -0.00000404   0.00000000   0.00000000           -0.59        0.00        0.00
   0.00000000   0.00001076  -0.00000000            0.00        1.58       -0.00
   0.00000000  -0.00000000  -0.00000032            0.00       -0.00       -0.05

     Energy error            =      1.0E-05 Ry
     Gradient error          =      6.3E-04 Ry/Bohr

     bfgs converged in  11 scf cycles and  10 bfgs steps
     (criteria: energy <  1.0E-04 Ry, force <  1.0E-03 Ry/Bohr)

     End of BFGS Geometry Optimization

     Final energy             =    -278.7138259552 Ry

     File ./iceIh_vdw/iceIh_vdw.bfgs deleted, as requested
Begin final coordinates

ATOMIC_POSITIONS (crystal)
O                0.0000000000        0.6641300900        0.0604406937
O                0.0000000000        0.3358699092        0.5604406935
O                0.5000000000        0.1641300792        0.0604407124
O                0.5000000000        0.8358699220        0.5604407167
O                0.5000000000        0.8321171546        0.9368988075
O                0.5000000000        0.1678828458        0.4368988000
O                0.0000000000        0.3321171500        0.9368988056
O                0.0000000000        0.6678828492        0.4368988001
H                0.0000000000        0.6625178695        0.1960821993
H                0.0000000000        0.3374821321        0.6960822023
H                0.5000000000        0.1625178533        0.1960822100
H                0.5000000000        0.8374821516        0.6960822148
H                0.0000000000        0.5423575494        0.0199387342
H                0.0000000000        0.4576424460        0.5199387325
H                0.5000000000        0.0423575325        0.0199387456
H                0.5000000000        0.9576424670        0.5199387455
H                0.6771112379        0.7690016640        0.9823197818
H                0.3228887626        0.2309983358        0.4823197756
H                0.6771112374        0.2309983358        0.4823197756
H                0.3228887621        0.7690016640        0.9823197818
H                0.1771112363        0.2690016620        0.9823197867
H                0.8228887644        0.7309983376        0.4823197820
H                0.1771112356        0.7309983376        0.4823197820
H                0.8228887637        0.2690016620        0.9823197867
End final coordinates



     Writing all to output data dir ./iceIh_vdw/iceIh_vdw.save/ :
     XML data file, charge density, pseudopotentials, collected wavefunctions

     init_run     :      6.33s CPU      6.46s WALL (       1 calls)
     electrons    :    968.56s CPU    983.90s WALL (      11 calls)
     update_pot   :      0.69s CPU      0.77s WALL (      10 calls)
     forces       :      6.73s CPU      6.74s WALL (      11 calls)
     stress       :     99.71s CPU     99.83s WALL (      11 calls)

     Called by init_run:
     wfcinit      :      4.32s CPU      4.39s WALL (       1 calls)
     potinit      :      1.58s CPU      1.62s WALL (       1 calls)
     hinit0       :      0.34s CPU      0.34s WALL (       1 calls)

     Called by electrons:
     c_bands      :    860.37s CPU    873.19s WALL (      87 calls)
     sum_band     :    102.13s CPU    103.14s WALL (      87 calls)
     v_of_rho     :      7.64s CPU      8.36s WALL (      94 calls)
     newd         :      0.23s CPU      0.27s WALL (      94 calls)
     mix_rho      :      0.17s CPU      0.17s WALL (      87 calls)
     vdW_kernel   :      1.50s CPU      1.52s WALL (       1 calls)

     Called by c_bands:
     init_us_2    :     12.21s CPU     12.61s WALL (   22655 calls)
     cegterg      :    826.77s CPU    833.87s WALL (   10005 calls)

     Called by *egterg:
     cdiaghg      :     68.78s CPU     69.11s WALL (   39347 calls)
     h_psi        :    623.98s CPU    630.23s WALL (   41072 calls)
     s_psi        :     24.84s CPU     24.98s WALL (   41072 calls)
     g_psi        :      2.18s CPU      2.19s WALL (   30952 calls)

     Called by h_psi:
     h_psi:calbec :     42.21s CPU     42.57s WALL (   41072 calls)
     vloc_psi     :    550.86s CPU    556.45s WALL (   41072 calls)
     add_vuspsi   :     26.41s CPU     26.61s WALL (   41072 calls)

     General routines
     calbec       :     57.72s CPU     58.22s WALL (   57402 calls)
     fft          :      3.71s CPU      3.78s WALL (    6320 calls)
     ffts         :      0.04s CPU      0.04s WALL (      87 calls)
     fftw         :    578.33s CPU    583.97s WALL ( 2379196 calls)

     Parallel routines

     PWSCF        :  18m 5.30s CPU  18m31.37s WALL


   This run was terminated on:   0:32:16   2Apr2026            

=------------------------------------------------------------------------------=
   JOB DONE.
=------------------------------------------------------------------------------=
