
     Program PWSCF v.7.3.1 starts on  2Apr2026 at  0:50:57 

     This program is part of the open-source Quantum ESPRESSO suite
     for quantum simulation of materials; please cite
         "P. Giannozzi et al., J. Phys.:Condens. Matter 21 395502 (2009);
         "P. Giannozzi et al., J. Phys.:Condens. Matter 29 465901 (2017);
         "P. Giannozzi et al., J. Chem. Phys. 152 154105 (2020);
          URL http://www.quantum-espresso.org", 
     in publications or presentations arising from this work. More details at
     http://www.quantum-espresso.org/quote

     Parallel version (MPI), running on   128 processors

     MPI processes distributed on     1 nodes
     236487 MiB available memory on the printing compute node when the environment starts

     Waiting for input...
     Reading input from standard input

     Current dimensions of program PWSCF are:
     Max number of different atomic species (ntypx) = 10
     Max number of k-points (npk) =  40000
     Max angular momentum in pseudopotentials (lmaxx) =  4

     IMPORTANT: XC functional enforced from input :
     Exchange-correlation= VDW-DF2
                           (   1   4  13   0   2   0   0)
     Any further DFT definition will be discarded
     Please, verify this is what you really want

     Found identity + ( -0.5000 -0.5000  0.0000) symmetry
     This is a supercell, fractional translations are disabled

     K-points division:     npool     =       4
     R & G space division:  proc/nbgrp/npool/nimage =      32
     Subspace diagonalization in iterative solution of the eigenvalue problem:
     a serial algorithm will be used


     Parallelization info
     --------------------
     sticks:   dense  smooth     PW     G-vecs:    dense   smooth      PW
     Min         113     113     31                 6423     6423     925
     Max         114     114     32                 6432     6432     930
     Sum        3639    3639   1005               205711   205711   29657

     Using Slab Decomposition



     bravais-lattice index     =            8
     lattice parameter (alat)  =       8.5841  a.u.
     unit-cell volume          =    1783.3812 (a.u.)^3
     number of atoms/cell      =           24
     number of atomic types    =            2
     number of electrons       =        64.00
     number of Kohn-Sham states=           32
     kinetic-energy cutoff     =      90.0000  Ry
     charge density cutoff     =     360.0000  Ry
     scf convergence threshold =      1.0E-07
     mixing beta               =       0.7000
     number of iterations used =            8  plain     mixing
     energy convergence thresh.=      1.0E-04
     force convergence thresh. =      1.0E-03
     Exchange-correlation= VDW-DF2
                           (   1   4  13   0   2   0   0)
     nstep                     =           50


     celldm(1)=   8.584114  celldm(2)=   1.732119  celldm(3)=   1.627721
     celldm(4)=   0.000000  celldm(5)=   0.000000  celldm(6)=   0.000000

     crystal axes: (cart. coord. in units of alat)
               a(1) = (   1.000000   0.000000   0.000000 )  
               a(2) = (   0.000000   1.732119   0.000000 )  
               a(3) = (   0.000000   0.000000   1.627721 )  

     reciprocal axes: (cart. coord. in units 2 pi/alat)
               b(1) = (  1.000000  0.000000  0.000000 )  
               b(2) = (  0.000000  0.577328  0.000000 )  
               b(3) = (  0.000000  0.000000  0.614356 )  


     PseudoPot. # 1 for H  read from file:
     ./H.pbe-van_ak.UPF
     MD5 check sum: 077eb6d537518a38cb46c6de387227b7
     Pseudo is Ultrasoft, Zval =  1.0
     Generated by new atomic code, or converted to UPF format
     Using radial grid of  615 points,  1 beta functions with: 
                l(1) =   0
     Q(r) pseudized with  8 coefficients,  rinner =    0.800

     PseudoPot. # 2 for O  read from file:
     ./O.pbe-van_ak.UPF
     MD5 check sum: 78c19812648e8988a0fe644b0f25305e
     Pseudo is Ultrasoft, Zval =  6.0
     Generated by new atomic code, or converted to UPF format
     Using radial grid of  737 points,  4 beta functions with: 
                l(1) =   0
                l(2) =   0
                l(3) =   1
                l(4) =   1
     Q(r) pseudized with  8 coefficients,  rinner =    0.800   0.800   0.800


     atomic species   valence    mass     pseudopotential
     H                 1.00     1.00800     H ( 1.00)
     O                 6.00    16.00000     O ( 1.00)

      2 Sym. Ops. (no inversion) found



   Cartesian axes

     site n.     atom                  positions (alat units)
         1        O      tau(   1) = (   0.0000000   1.1515127   0.1027092  )
         2        O      tau(   2) = (   0.0000000   0.5806063   0.9165697  )
         3        O      tau(   3) = (   0.5000000   0.2854532   0.1027092  )
         4        O      tau(   4) = (   0.5000000   1.4466659   0.9165697  )
         5        O      tau(   5) = (   0.5000000   1.4298643   1.5250118  )
         6        O      tau(   6) = (   0.5000000   0.3022548   0.7111513  )
         7        O      tau(   7) = (   0.0000000   0.5638048   1.5250118  )
         8        O      tau(   8) = (   0.0000000   1.1683143   0.7111513  )
         9        H      tau(   9) = (   0.0000000   1.1494343   0.3195216  )
        10        H      tau(  10) = (   0.0000000   0.5826848   1.1333822  )
        11        H      tau(  11) = (   0.5000000   0.2833747   0.3195216  )
        12        H      tau(  12) = (   0.5000000   1.4487443   1.1333822  )
        13        H      tau(  13) = (   0.0000000   0.9289355   0.0297873  )
        14        H      tau(  14) = (   0.0000000   0.8031836   0.8436478  )
        15        H      tau(  15) = (   0.5000000   0.0628759   0.0297873  )
        16        H      tau(  16) = (   0.5000000   1.6692431   0.8436478  )
        17        H      tau(  17) = (   0.6766000   1.3420459   1.5979337  )
        18        H      tau(  18) = (   0.3234000   0.3900732   0.7840732  )
        19        H      tau(  19) = (   0.6766000   0.3900732   0.7840732  )
        20        H      tau(  20) = (   0.3234000   1.3420459   1.5979337  )
        21        H      tau(  21) = (   0.1766000   0.4759863   1.5979337  )
        22        H      tau(  22) = (   0.8234000   1.2561327   0.7840732  )
        23        H      tau(  23) = (   0.1766000   1.2561327   0.7840732  )
        24        H      tau(  24) = (   0.8234000   0.4759863   1.5979337  )

     number of k points=   460

     Number of k-points >= 100: set verbosity='high' to print them.

     Dense  grid:   205711 G-vectors     FFT dimensions: (  54,  90,  90)

     Estimated max dynamical RAM per process >      53.78 MB

     Estimated total dynamical RAM >       6.58 GB

     Initial potential from superposition of free atoms

     starting charge      63.9998, renormalised to      64.0000


     %%%%%%%%%%%%%%%%%%%%%%%%%%%%%%%%%%%%%%%%%%%%%%%%%%%%%%%%%%%%%%%%%%%%%%%%
     %                                                                      %
     % You are using vdW-DF, which was implemented by the Thonhauser group. %
     % Please cite the following two papers that made this development      %
     % possible and the two reviews that describe the various versions:     %
     %                                                                      %
     %   T. Thonhauser et al., PRL 115, 136402 (2015).                      %
     %   T. Thonhauser et al., PRB 76, 125112 (2007).                       %
     %   K. Berland et al., Rep. Prog. Phys. 78, 066501 (2015).             %
     %   D.C. Langreth et al., J. Phys.: Condens. Matter 21, 084203 (2009). %
     %                                                                      %
     % If you are calculating stress with vdW-DF, please also cite:         %
     %                                                                      %
     %   R. Sabatini et al., J. Phys.: Condens. Matter 24, 424209 (2012).   %
     %                                                                      %
     %%%%%%%%%%%%%%%%%%%%%%%%%%%%%%%%%%%%%%%%%%%%%%%%%%%%%%%%%%%%%%%%%%%%%%%%

     %%%%%%%%%%%%%%%%%%%%%%%%%%%%%%%%%%%%%%%%%%%%%%%%%%%%%%%%%%%%%%%%%%%%%%%%
     %                                                                      %
     %  vdW-DF NEWS:                                                        %
     %                                                                      %
     %  * vdW-DF3 is now available. DOI: 10.1021/acs.jctc.0c00471           %
     %    use with input_dft = 'vdW-DF3-opt1' or 'vdW-DF3-opt2'             %
     %                                                                      %
     %  * Unscreened and range-separated hybrid vdW-DF-cx functionals       %
     %    DOI: 10.1063/1.4986522 and 10.1088/1361-648X/ac2ad2               %
     %    use with input_dft = 'vdW-DF-cx0'    and 'vdW-DF-ahcx'            %
     %  * Unscreened and range-separated hybrid vdW-DF2-b86r functionals    %
     %    DOI: 10.1063/1.4986522 and DOI: 10.1103/PhysRevX.12.041003        %
     %    use with input_dft = 'vdW-DF2-br0' and 'vdW-DF2-ahbr'             %
     %                                                                      %
     %%%%%%%%%%%%%%%%%%%%%%%%%%%%%%%%%%%%%%%%%%%%%%%%%%%%%%%%%%%%%%%%%%%%%%%%


     Starting wfcs are   48 randomized atomic wfcs

     total cpu time spent up to now is        6.7 secs

     per-process dynamical memory:    61.3 Mb

     Self-consistent Calculation

     iteration #  1     ecut=    90.00 Ry     beta= 0.70
     Davidson diagonalization with overlap
     ethr =  1.00E-02,  avg # of iterations =  2.0

     total cpu time spent up to now is       16.0 secs

     total energy              =    -277.19133300 Ry
     estimated scf accuracy    <       3.30122848 Ry

     iteration #  2     ecut=    90.00 Ry     beta= 0.70
     Davidson diagonalization with overlap
     ethr =  5.16E-03,  avg # of iterations =  3.0

     total cpu time spent up to now is       28.7 secs

     total energy              =    -278.24997789 Ry
     estimated scf accuracy    <       2.37987507 Ry

     iteration #  3     ecut=    90.00 Ry     beta= 0.70
     Davidson diagonalization with overlap
     ethr =  3.72E-03,  avg # of iterations =  2.0

     total cpu time spent up to now is       38.2 secs

     total energy              =    -278.57859867 Ry
     estimated scf accuracy    <       0.09628127 Ry

     iteration #  4     ecut=    90.00 Ry     beta= 0.70
     Davidson diagonalization with overlap
     ethr =  1.50E-04,  avg # of iterations =  4.0

     total cpu time spent up to now is       52.8 secs

     total energy              =    -278.65476780 Ry
     estimated scf accuracy    <       0.11720000 Ry

     iteration #  5     ecut=    90.00 Ry     beta= 0.70
     Davidson diagonalization with overlap
     ethr =  1.50E-04,  avg # of iterations =  1.9

     total cpu time spent up to now is       60.8 secs

     total energy              =    -278.65960954 Ry
     estimated scf accuracy    <       0.01885998 Ry

     iteration #  6     ecut=    90.00 Ry     beta= 0.70
     Davidson diagonalization with overlap
     ethr =  2.95E-05,  avg # of iterations =  2.0

     total cpu time spent up to now is       68.9 secs

     total energy              =    -278.65646479 Ry
     estimated scf accuracy    <       0.00935112 Ry

     iteration #  7     ecut=    90.00 Ry     beta= 0.70
     Davidson diagonalization with overlap
     ethr =  1.46E-05,  avg # of iterations =  3.0

     total cpu time spent up to now is       80.7 secs

     total energy              =    -278.66032108 Ry
     estimated scf accuracy    <       0.00037650 Ry

     iteration #  8     ecut=    90.00 Ry     beta= 0.70
     Davidson diagonalization with overlap
     ethr =  5.88E-07,  avg # of iterations =  3.9

     total cpu time spent up to now is       94.0 secs

     total energy              =    -278.66009629 Ry
     estimated scf accuracy    <       0.00179345 Ry

     iteration #  9     ecut=    90.00 Ry     beta= 0.70
     Davidson diagonalization with overlap
     ethr =  5.88E-07,  avg # of iterations =  2.0

     total cpu time spent up to now is      103.6 secs

     total energy              =    -278.65995236 Ry
     estimated scf accuracy    <       0.00059268 Ry

     iteration # 10     ecut=    90.00 Ry     beta= 0.70
     Davidson diagonalization with overlap
     ethr =  5.88E-07,  avg # of iterations =  2.8

     total cpu time spent up to now is      113.7 secs

     total energy              =    -278.66002262 Ry
     estimated scf accuracy    <       0.00005417 Ry

     iteration # 11     ecut=    90.00 Ry     beta= 0.70
     Davidson diagonalization with overlap
     ethr =  8.46E-08,  avg # of iterations =  3.3

     total cpu time spent up to now is      124.8 secs

     total energy              =    -278.66003913 Ry
     estimated scf accuracy    <       0.00000278 Ry

     iteration # 12     ecut=    90.00 Ry     beta= 0.70
     Davidson diagonalization with overlap
     ethr =  4.35E-09,  avg # of iterations =  3.3

     total cpu time spent up to now is      135.6 secs

     total energy              =    -278.66003954 Ry
     estimated scf accuracy    <       0.00000197 Ry

     iteration # 13     ecut=    90.00 Ry     beta= 0.70
     Davidson diagonalization with overlap
     ethr =  3.07E-09,  avg # of iterations =  2.0

     total cpu time spent up to now is      143.5 secs

     total energy              =    -278.66003940 Ry
     estimated scf accuracy    <       0.00000077 Ry

     iteration # 14     ecut=    90.00 Ry     beta= 0.70
     Davidson diagonalization with overlap
     ethr =  1.20E-09,  avg # of iterations =  2.0

     total cpu time spent up to now is      152.8 secs

     total energy              =    -278.66003947 Ry
     estimated scf accuracy    <       0.00000010 Ry

     iteration # 15     ecut=    90.00 Ry     beta= 0.70
     Davidson diagonalization with overlap
     ethr =  1.63E-10,  avg # of iterations =  3.0

     total cpu time spent up to now is      163.3 secs

     End of self-consistent calculation

     Number of k-points >= 100: set verbosity='high' to print the bands.

     highest occupied level (ev):    -3.8972

!    total energy              =    -278.66003950 Ry
     estimated scf accuracy    <          4.2E-09 Ry

     The total energy is the sum of the following terms:
     one-electron contribution =    -242.42691831 Ry
     hartree contribution      =     141.72393594 Ry
     xc contribution           =     -70.64337216 Ry
     ewald contribution        =    -107.31368497 Ry

     convergence has been achieved in  15 iterations

     Forces acting on atoms (cartesian axes, Ry/au):

     atom    1 type  2   force =     0.00000000   -0.06949392   -0.04519780
     atom    2 type  2   force =     0.00000000    0.06949302   -0.04519763
     atom    3 type  2   force =     0.00000000   -0.06949249   -0.04519888
     atom    4 type  2   force =     0.00000000    0.06949273   -0.04519796
     atom    5 type  2   force =     0.00000000    0.08845713   -0.05884726
     atom    6 type  2   force =     0.00000000   -0.08845681   -0.05884708
     atom    7 type  2   force =     0.00000000    0.08845595   -0.05884624
     atom    8 type  2   force =     0.00000000   -0.08845550   -0.05884566
     atom    9 type  1   force =     0.00000000   -0.00416583    0.01302309
     atom   10 type  1   force =     0.00000000    0.00416577    0.01302190
     atom   11 type  1   force =     0.00000000   -0.00416564    0.01302194
     atom   12 type  1   force =     0.00000000    0.00416566    0.01302144
     atom   13 type  1   force =     0.00000000    0.07249792    0.02712785
     atom   14 type  1   force =     0.00000000   -0.07249791    0.02712775
     atom   15 type  1   force =     0.00000000    0.07249860    0.02712795
     atom   16 type  1   force =     0.00000000   -0.07249849    0.02712791
     atom   17 type  1   force =     0.04684106   -0.04387447    0.03194732
     atom   18 type  1   force =    -0.04684084    0.04387434    0.03194722
     atom   19 type  1   force =     0.04684084    0.04387434    0.03194722
     atom   20 type  1   force =    -0.04684106   -0.04387447    0.03194732
     atom   21 type  1   force =     0.04684112   -0.04387449    0.03194740
     atom   22 type  1   force =    -0.04684120    0.04387452    0.03194741
     atom   23 type  1   force =     0.04684120    0.04387452    0.03194741
     atom   24 type  1   force =    -0.04684112   -0.04387449    0.03194740

     Total force =     0.372117     Total SCF correction =     0.000070


     Computing stress (Cartesian axis) and pressure

          total   stress  (Ry/bohr**3)                   (kbar)     P=       10.36
   0.00032826   0.00000000   0.00000000           48.29        0.00        0.00
   0.00000000  -0.00023704   0.00000000            0.00      -34.87        0.00
   0.00000000   0.00000000   0.00012011            0.00        0.00       17.67


     BFGS Geometry Optimization
     Energy error            =      0.0E+00 Ry
     Gradient error          =      8.8E-02 Ry/Bohr

     number of scf cycles    =   1
     number of bfgs steps    =   0

     energy             new  =    -278.6600394985 Ry

     new trust radius        =       0.1062434227 bohr
     new conv_thr            =       0.0000001000 Ry


ATOMIC_POSITIONS (crystal)
O                0.0000000000        0.6601261509        0.0598652445
O                0.0000000000        0.3398737886        0.5598652335
O                0.5000000000        0.1601262468        0.0598651673
O                0.5000000000        0.8398737690        0.5598652100
O                0.5000000000        0.8314492255        0.9326883842
O                0.5000000000        0.1685507963        0.4326883673
O                0.0000000000        0.3314491459        0.9326884574
O                0.0000000000        0.6685508842        0.4326884690
H                0.0000000000        0.6633198538        0.1972320485
H                0.0000000000        0.3366801420        0.6972319937
H                0.5000000000        0.1633198667        0.1972319666
H                0.5000000000        0.8366801352        0.6972319608
H                0.0000000000        0.5411758764        0.0202415121
H                0.0000000000        0.4588241247        0.5202415012
H                0.5000000000        0.0411759220        0.0202415195
H                0.5000000000        0.9588240857        0.5202415124
H                0.6820566932        0.7718492104        0.9839864389
H                0.3179433321        0.2281507808        0.4839864311
H                0.6820566679        0.2281507808        0.4839864311
H                0.3179433068        0.7718492104        0.9839864389
H                0.1820567002        0.2718492094        0.9839864442
H                0.8179432905        0.7281507926        0.4839864447
H                0.1820567095        0.7281507926        0.4839864447
H                0.8179432998        0.2718492094        0.9839864442



     Writing config-only to output data dir ./iceIh_vdw/iceIh_vdw.save/ :
     XML data file
     NEW-OLD atomic charge density approx. for the potential

     total cpu time spent up to now is      173.4 secs

     per-process dynamical memory:    61.9 Mb

     Self-consistent Calculation

     iteration #  1     ecut=    90.00 Ry     beta= 0.70
     Davidson diagonalization with overlap
     ethr =  1.00E-06,  avg # of iterations = 10.0

     total cpu time spent up to now is      201.5 secs

     total energy              =    -278.68513444 Ry
     estimated scf accuracy    <       0.04167067 Ry

     iteration #  2     ecut=    90.00 Ry     beta= 0.70
     Davidson diagonalization with overlap
     ethr =  6.51E-05,  avg # of iterations =  3.0

     total cpu time spent up to now is      213.5 secs

     total energy              =    -278.69301947 Ry
     estimated scf accuracy    <       0.02686165 Ry

     iteration #  3     ecut=    90.00 Ry     beta= 0.70
     Davidson diagonalization with overlap
     ethr =  4.20E-05,  avg # of iterations =  2.8

     total cpu time spent up to now is      223.7 secs

     total energy              =    -278.69908675 Ry
     estimated scf accuracy    <       0.00030340 Ry

     iteration #  4     ecut=    90.00 Ry     beta= 0.70
     Davidson diagonalization with overlap
     ethr =  4.74E-07,  avg # of iterations =  6.2

     total cpu time spent up to now is      241.0 secs

     total energy              =    -278.69917247 Ry
     estimated scf accuracy    <       0.00113380 Ry

     iteration #  5     ecut=    90.00 Ry     beta= 0.70
     Davidson diagonalization with overlap
     ethr =  4.74E-07,  avg # of iterations =  4.6

     total cpu time spent up to now is      255.3 secs

     total energy              =    -278.69949458 Ry
     estimated scf accuracy    <       0.00008062 Ry

     iteration #  6     ecut=    90.00 Ry     beta= 0.70
     Davidson diagonalization with overlap
     ethr =  1.26E-07,  avg # of iterations =  1.7

     total cpu time spent up to now is      263.6 secs

     total energy              =    -278.69948525 Ry
     estimated scf accuracy    <       0.00003924 Ry

     iteration #  7     ecut=    90.00 Ry     beta= 0.70
     Davidson diagonalization with overlap
     ethr =  6.13E-08,  avg # of iterations =  2.2

     total cpu time spent up to now is      272.9 secs

     total energy              =    -278.69948924 Ry
     estimated scf accuracy    <       0.00000354 Ry

     iteration #  8     ecut=    90.00 Ry     beta= 0.70
     Davidson diagonalization with overlap
     ethr =  5.53E-09,  avg # of iterations =  4.0

     total cpu time spent up to now is      285.3 secs

     total energy              =    -278.69949101 Ry
     estimated scf accuracy    <       0.00000046 Ry

     iteration #  9     ecut=    90.00 Ry     beta= 0.70
     Davidson diagonalization with overlap
     ethr =  7.25E-10,  avg # of iterations =  2.0

     total cpu time spent up to now is      294.2 secs

     total energy              =    -278.69949097 Ry
     estimated scf accuracy    <       0.00000022 Ry

     iteration # 10     ecut=    90.00 Ry     beta= 0.70
     Davidson diagonalization with overlap
     ethr =  3.50E-10,  avg # of iterations =  2.6

     total cpu time spent up to now is      304.5 secs

     End of self-consistent calculation

     Number of k-points >= 100: set verbosity='high' to print the bands.

     highest occupied level (ev):    -3.9553

!    total energy              =    -278.69949100 Ry
     estimated scf accuracy    <          8.7E-09 Ry

     The total energy is the sum of the following terms:
     one-electron contribution =    -239.74435547 Ry
     hartree contribution      =     140.50904024 Ry
     xc contribution           =     -70.37953698 Ry
     ewald contribution        =    -109.08463879 Ry

     convergence has been achieved in  10 iterations

     Forces acting on atoms (cartesian axes, Ry/au):

     atom    1 type  2   force =     0.00000000    0.03852446    0.03017160
     atom    2 type  2   force =     0.00000000   -0.03852349    0.03017102
     atom    3 type  2   force =     0.00000000    0.03852378    0.03017166
     atom    4 type  2   force =     0.00000000   -0.03852377    0.03017106
     atom    5 type  2   force =     0.00000000   -0.02579215    0.02584601
     atom    6 type  2   force =     0.00000000    0.02579187    0.02584583
     atom    7 type  2   force =     0.00000000   -0.02579134    0.02584530
     atom    8 type  2   force =     0.00000000    0.02579115    0.02584518
     atom    9 type  1   force =     0.00000000   -0.00610205   -0.02368407
     atom   10 type  1   force =     0.00000000    0.00610194   -0.02368363
     atom   11 type  1   force =     0.00000000   -0.00610184   -0.02368392
     atom   12 type  1   force =     0.00000000    0.00610189   -0.02368348
     atom   13 type  1   force =     0.00000000   -0.02395686   -0.00522615
     atom   14 type  1   force =     0.00000000    0.02395614   -0.00522600
     atom   15 type  1   force =     0.00000000   -0.02395661   -0.00522628
     atom   16 type  1   force =     0.00000000    0.02395650   -0.00522619
     atom   17 type  1   force =    -0.03238537    0.00828978   -0.01355366
     atom   18 type  1   force =     0.03238519   -0.00828968   -0.01355359
     atom   19 type  1   force =    -0.03238519   -0.00828968   -0.01355359
     atom   20 type  1   force =     0.03238537    0.00828978   -0.01355366
     atom   21 type  1   force =    -0.03238507    0.00828943   -0.01355340
     atom   22 type  1   force =     0.03238501   -0.00828935   -0.01355332
     atom   23 type  1   force =    -0.03238501   -0.00828935   -0.01355332
     atom   24 type  1   force =     0.03238507    0.00828943   -0.01355340

     Total force =     0.173544     Total SCF correction =     0.000051


     Computing stress (Cartesian axis) and pressure

          total   stress  (Ry/bohr**3)                   (kbar)     P=      -19.48
  -0.00027943   0.00000000   0.00000000          -41.11        0.00        0.00
   0.00000000   0.00004363   0.00000000            0.00        6.42        0.00
   0.00000000   0.00000000  -0.00016147            0.00        0.00      -23.75

     Energy error            =      3.9E-02 Ry
     Gradient error          =      3.9E-02 Ry/Bohr

     number of scf cycles    =   2
     number of bfgs steps    =   1

     energy             old  =    -278.6600394985 Ry
     energy             new  =    -278.6994910042 Ry

     CASE: energy            _new < energy            _old

     new trust radius        =       0.0328105385 bohr
     new conv_thr            =       0.0000000385 Ry


ATOMIC_POSITIONS (crystal)
O                0.0000000000        0.6618576449        0.0613209684
O                0.0000000000        0.3381423390        0.5613209285
O                0.5000000000        0.1618577106        0.0613208926
O                0.5000000000        0.8381423059        0.5613209068
O                0.5000000000        0.8303441156        0.9339077561
O                0.5000000000        0.1696558935        0.4339077304
O                0.0000000000        0.3303440728        0.9339077949
O                0.0000000000        0.6696559489        0.4339078014
H                0.0000000000        0.6630260089        0.1960584889
H                0.0000000000        0.3369739819        0.6960584547
H                0.5000000000        0.1630260320        0.1960584131
H                0.5000000000        0.8369739726        0.6960584287
H                0.0000000000        0.5401369267        0.0200158697
H                0.0000000000        0.4598630401        0.5200158666
H                0.5000000000        0.0401369851        0.0200158708
H                0.5000000000        0.9598630177        0.5200158684
H                0.6795095821        0.7721844648        0.9833484938
H                0.3204904286        0.2278155309        0.4833484894
H                0.6795095714        0.2278155309        0.4833484894
H                0.3204904179        0.7721844648        0.9833484938
H                0.1795096146        0.2721844476        0.9833485126
H                0.8204903717        0.7278155586        0.4833485171
H                0.1795096283        0.7278155586        0.4833485171
H                0.8204903854        0.2721844476        0.9833485126



     Writing config-only to output data dir ./iceIh_vdw/iceIh_vdw.save/ :
     XML data file
     NEW-OLD atomic charge density approx. for the potential

     total cpu time spent up to now is      314.7 secs

     per-process dynamical memory:    62.2 Mb

     Self-consistent Calculation

     iteration #  1     ecut=    90.00 Ry     beta= 0.70
     Davidson diagonalization with overlap
     ethr =  1.00E-06,  avg # of iterations =  7.0

     total cpu time spent up to now is      335.2 secs

     total energy              =    -278.70911955 Ry
     estimated scf accuracy    <       0.00359717 Ry

     iteration #  2     ecut=    90.00 Ry     beta= 0.70
     Davidson diagonalization with overlap
     ethr =  5.62E-06,  avg # of iterations =  3.0

     total cpu time spent up to now is      346.9 secs

     total energy              =    -278.70987106 Ry
     estimated scf accuracy    <       0.00149614 Ry

     iteration #  3     ecut=    90.00 Ry     beta= 0.70
     Davidson diagonalization with overlap
     ethr =  2.34E-06,  avg # of iterations =  3.0

     total cpu time spent up to now is      357.5 secs

     total energy              =    -278.71022858 Ry
     estimated scf accuracy    <       0.00003953 Ry

     iteration #  4     ecut=    90.00 Ry     beta= 0.70
     Davidson diagonalization with overlap
     ethr =  6.18E-08,  avg # of iterations =  3.0

     total cpu time spent up to now is      368.7 secs

     total energy              =    -278.71023831 Ry
     estimated scf accuracy    <       0.00001354 Ry

     iteration #  5     ecut=    90.00 Ry     beta= 0.70
     Davidson diagonalization with overlap
     ethr =  2.12E-08,  avg # of iterations =  3.2

     total cpu time spent up to now is      379.6 secs

     total energy              =    -278.71024195 Ry
     estimated scf accuracy    <       0.00000044 Ry

     iteration #  6     ecut=    90.00 Ry     beta= 0.70
     Davidson diagonalization with overlap
     ethr =  6.88E-10,  avg # of iterations =  3.1

     total cpu time spent up to now is      391.4 secs

     total energy              =    -278.71024196 Ry
     estimated scf accuracy    <       0.00000035 Ry

     iteration #  7     ecut=    90.00 Ry     beta= 0.70
     Davidson diagonalization with overlap
     ethr =  5.42E-10,  avg # of iterations =  3.0

     total cpu time spent up to now is      402.2 secs

     End of self-consistent calculation

     Number of k-points >= 100: set verbosity='high' to print the bands.

     highest occupied level (ev):    -3.9712

!    total energy              =    -278.71024205 Ry
     estimated scf accuracy    <          9.5E-09 Ry

     The total energy is the sum of the following terms:
     one-electron contribution =    -240.71609699 Ry
     hartree contribution      =     140.94788433 Ry
     xc contribution           =     -70.47489317 Ry
     ewald contribution        =    -108.46713623 Ry

     convergence has been achieved in   7 iterations

     Forces acting on atoms (cartesian axes, Ry/au):

     atom    1 type  2   force =     0.00000000   -0.00269337   -0.00731870
     atom    2 type  2   force =     0.00000000    0.00269316   -0.00731847
     atom    3 type  2   force =     0.00000000   -0.00269341   -0.00731848
     atom    4 type  2   force =     0.00000000    0.00269329   -0.00731846
     atom    5 type  2   force =     0.00000000   -0.00017814    0.00770684
     atom    6 type  2   force =     0.00000000    0.00017810    0.00770686
     atom    7 type  2   force =     0.00000000   -0.00017799    0.00770671
     atom    8 type  2   force =     0.00000000    0.00017793    0.00770670
     atom    9 type  1   force =     0.00000000   -0.00397658    0.00009728
     atom   10 type  1   force =     0.00000000    0.00397655    0.00009723
     atom   11 type  1   force =     0.00000000   -0.00397645    0.00009732
     atom   12 type  1   force =     0.00000000    0.00397649    0.00009729
     atom   13 type  1   force =     0.00000000    0.01138730    0.00558470
     atom   14 type  1   force =     0.00000000   -0.01138704    0.00558457
     atom   15 type  1   force =     0.00000000    0.01138717    0.00558450
     atom   16 type  1   force =     0.00000000   -0.01138709    0.00558451
     atom   17 type  1   force =    -0.01332327   -0.00257373   -0.00303507
     atom   18 type  1   force =     0.01332324    0.00257374   -0.00303508
     atom   19 type  1   force =    -0.01332324    0.00257374   -0.00303508
     atom   20 type  1   force =     0.01332327   -0.00257373   -0.00303507
     atom   21 type  1   force =    -0.01332330   -0.00257378   -0.00303504
     atom   22 type  1   force =     0.01332333    0.00257381   -0.00303502
     atom   23 type  1   force =    -0.01332333    0.00257381   -0.00303502
     atom   24 type  1   force =     0.01332330   -0.00257378   -0.00303504

     Total force =     0.052292     Total SCF correction =     0.000081


     Computing stress (Cartesian axis) and pressure

          total   stress  (Ry/bohr**3)                   (kbar)     P=      -10.27
  -0.00012640   0.00000000   0.00000000          -18.59        0.00        0.00
   0.00000000  -0.00006670  -0.00000000            0.00       -9.81       -0.00
   0.00000000  -0.00000000  -0.00001634            0.00       -0.00       -2.40

     Energy error            =      1.1E-02 Ry
     Gradient error          =      1.3E-02 Ry/Bohr

     number of scf cycles    =   3
     number of bfgs steps    =   2

     energy             old  =    -278.6994910042 Ry
     energy             new  =    -278.7102420499 Ry

     CASE: energy            _new < energy            _old

     new trust radius        =       0.0177672616 bohr
     new conv_thr            =       0.0000000133 Ry


ATOMIC_POSITIONS (crystal)
O                0.0000000000        0.6618717951        0.0609400300
O                0.0000000000        0.3381281792        0.5609400037
O                0.5000000000        0.1618718546        0.0609399701
O                0.5000000000        0.8381281536        0.5609399824
O                0.5000000000        0.8302256875        0.9346391380
O                0.5000000000        0.1697743173        0.4346391125
O                0.0000000000        0.3302256602        0.9346391624
O                0.0000000000        0.6697743565        0.4346391675
H                0.0000000000        0.6626930311        0.1959034857
H                0.0000000000        0.3373069567        0.6959034495
H                0.5000000000        0.1626930649        0.1959034126
H                0.5000000000        0.8373069430        0.6959034292
H                0.0000000000        0.5408542304        0.0204307619
H                0.0000000000        0.4591457504        0.5204307498
H                0.5000000000        0.0408542816        0.0204307465
H                0.5000000000        0.9591457262        0.5204307454
H                0.6775206614        0.7720196926        0.9830433280
H                0.3224793426        0.2279803045        0.4830433228
H                0.6775206574        0.2279803045        0.4830433228
H                0.3224793386        0.7720196926        0.9830433280
H                0.1775206941        0.2720196696        0.9830433510
H                0.8224792949        0.7279803392        0.4830433575
H                0.1775207051        0.7279803392        0.4830433575
H                0.8224793059        0.2720196696        0.9830433510



     Writing config-only to output data dir ./iceIh_vdw/iceIh_vdw.save/ :
     XML data file
     NEW-OLD atomic charge density approx. for the potential

     total cpu time spent up to now is      412.4 secs

     per-process dynamical memory:    62.1 Mb

     Self-consistent Calculation

     iteration #  1     ecut=    90.00 Ry     beta= 0.70
     Davidson diagonalization with overlap
     ethr =  1.00E-06,  avg # of iterations =  4.0

     total cpu time spent up to now is      427.2 secs

     total energy              =    -278.71184022 Ry
     estimated scf accuracy    <       0.00052114 Ry

     iteration #  2     ecut=    90.00 Ry     beta= 0.70
     Davidson diagonalization with overlap
     ethr =  8.14E-07,  avg # of iterations =  3.0

     total cpu time spent up to now is      438.7 secs

     total energy              =    -278.71195385 Ry
     estimated scf accuracy    <       0.00023471 Ry

     iteration #  3     ecut=    90.00 Ry     beta= 0.70
     Davidson diagonalization with overlap
     ethr =  3.67E-07,  avg # of iterations =  3.0

     total cpu time spent up to now is      448.8 secs

     total energy              =    -278.71200559 Ry
     estimated scf accuracy    <       0.00000511 Ry

     iteration #  4     ecut=    90.00 Ry     beta= 0.70
     Davidson diagonalization with overlap
     ethr =  7.98E-09,  avg # of iterations =  3.9

     total cpu time spent up to now is      461.4 secs

     total energy              =    -278.71200750 Ry
     estimated scf accuracy    <       0.00000329 Ry

     iteration #  5     ecut=    90.00 Ry     beta= 0.70
     Davidson diagonalization with overlap
     ethr =  5.15E-09,  avg # of iterations =  2.0

     total cpu time spent up to now is      470.7 secs

     total energy              =    -278.71200782 Ry
     estimated scf accuracy    <       0.00000040 Ry

     iteration #  6     ecut=    90.00 Ry     beta= 0.70
     Davidson diagonalization with overlap
     ethr =  6.21E-10,  avg # of iterations =  4.0

     total cpu time spent up to now is      483.3 secs

     total energy              =    -278.71200797 Ry
     estimated scf accuracy    <       0.00000021 Ry

     iteration #  7     ecut=    90.00 Ry     beta= 0.70
     Davidson diagonalization with overlap
     ethr =  3.26E-10,  avg # of iterations =  2.0

     total cpu time spent up to now is      492.3 secs

     End of self-consistent calculation

     Number of k-points >= 100: set verbosity='high' to print the bands.

     highest occupied level (ev):    -3.9863

!    total energy              =    -278.71200800 Ry
     estimated scf accuracy    <          8.7E-09 Ry

     The total energy is the sum of the following terms:
     one-electron contribution =    -241.48329511 Ry
     hartree contribution      =     141.29075537 Ry
     xc contribution           =     -70.54914403 Ry
     ewald contribution        =    -107.97032423 Ry

     convergence has been achieved in   7 iterations

     Forces acting on atoms (cartesian axes, Ry/au):

     atom    1 type  2   force =     0.00000000    0.00438274    0.00013985
     atom    2 type  2   force =     0.00000000   -0.00438266    0.00013978
     atom    3 type  2   force =     0.00000000    0.00438265    0.00013983
     atom    4 type  2   force =     0.00000000   -0.00438263    0.00013986
     atom    5 type  2   force =     0.00000000    0.01054437   -0.00245834
     atom    6 type  2   force =     0.00000000   -0.01054435   -0.00245829
     atom    7 type  2   force =     0.00000000    0.01054428   -0.00245828
     atom    8 type  2   force =     0.00000000   -0.01054430   -0.00245826
     atom    9 type  1   force =     0.00000000   -0.00296942   -0.00294304
     atom   10 type  1   force =     0.00000000    0.00296939   -0.00294293
     atom   11 type  1   force =     0.00000000   -0.00296935   -0.00294288
     atom   12 type  1   force =     0.00000000    0.00296936   -0.00294293
     atom   13 type  1   force =     0.00000000    0.00301151    0.00214001
     atom   14 type  1   force =     0.00000000   -0.00301154    0.00213999
     atom   15 type  1   force =     0.00000000    0.00301147    0.00213991
     atom   16 type  1   force =     0.00000000   -0.00301151    0.00213993
     atom   17 type  1   force =    -0.00128120   -0.00776963    0.00156076
     atom   18 type  1   force =     0.00128120    0.00776961    0.00156074
     atom   19 type  1   force =    -0.00128120    0.00776961    0.00156074
     atom   20 type  1   force =     0.00128120   -0.00776963    0.00156076
     atom   21 type  1   force =    -0.00128134   -0.00776956    0.00156070
     atom   22 type  1   force =     0.00128138    0.00776956    0.00156070
     atom   23 type  1   force =    -0.00128138    0.00776956    0.00156070
     atom   24 type  1   force =     0.00128134   -0.00776956    0.00156070

     Total force =     0.034437     Total SCF correction =     0.000091


     Computing stress (Cartesian axis) and pressure

          total   stress  (Ry/bohr**3)                   (kbar)     P=       -2.46
  -0.00003618   0.00000000   0.00000000           -5.32        0.00        0.00
   0.00000000  -0.00000050   0.00000000            0.00       -0.07        0.00
   0.00000000   0.00000000  -0.00001358            0.00        0.00       -2.00

     Energy error            =      1.8E-03 Ry
     Gradient error          =      1.1E-02 Ry/Bohr

     number of scf cycles    =   4
     number of bfgs steps    =   3

     energy             old  =    -278.7102420499 Ry
     energy             new  =    -278.7120079997 Ry

     CASE: energy            _new < energy            _old

     new trust radius        =       0.0142733839 bohr
     new conv_thr            =       0.0000000105 Ry


ATOMIC_POSITIONS (crystal)
O                0.0000000000        0.6623043062        0.0608695925
O                0.0000000000        0.3376956731        0.5608695641
O                0.5000000000        0.1623043549        0.0608695371
O                0.5000000000        0.8376956515        0.5608695489
O                0.5000000000        0.8309476375        0.9348172523
O                0.5000000000        0.1690523658        0.4348172301
O                0.0000000000        0.3309476121        0.9348172735
O                0.0000000000        0.6690524004        0.4348172792
H                0.0000000000        0.6622937455        0.1955104120
H                0.0000000000        0.3377062386        0.6955103850
H                0.5000000000        0.1622937903        0.1955103529
H                0.5000000000        0.8377062204        0.6955103676
H                0.0000000000        0.5413645693        0.0207882479
H                0.0000000000        0.4586354131        0.5207882305
H                0.5000000000        0.0413646158        0.0207882163
H                0.5000000000        0.9586353913        0.5207882180
H                0.6763261971        0.7713527475        0.9830072841
H                0.3236738035        0.2286472491        0.4830072766
H                0.6763261965        0.2286472491        0.4830072766
H                0.3236738029        0.7713527475        0.9830072841
H                0.1763262125        0.2713527258        0.9830073053
H                0.8236737817        0.7286472847        0.4830073130
H                0.1763262183        0.7286472847        0.4830073130
H                0.8236737875        0.2713527258        0.9830073053



     Writing config-only to output data dir ./iceIh_vdw/iceIh_vdw.save/ :
     XML data file
     NEW-OLD atomic charge density approx. for the potential

     total cpu time spent up to now is      502.8 secs

     per-process dynamical memory:    62.1 Mb

     Self-consistent Calculation

     iteration #  1     ecut=    90.00 Ry     beta= 0.70
     Davidson diagonalization with overlap
     ethr =  1.00E-06,  avg # of iterations =  4.0

     total cpu time spent up to now is      517.1 secs

     total energy              =    -278.71315441 Ry
     estimated scf accuracy    <       0.00009388 Ry

     iteration #  2     ecut=    90.00 Ry     beta= 0.70
     Davidson diagonalization with overlap
     ethr =  1.47E-07,  avg # of iterations =  2.1

     total cpu time spent up to now is      526.4 secs

     total energy              =    -278.71316893 Ry
     estimated scf accuracy    <       0.00001116 Ry

     iteration #  3     ecut=    90.00 Ry     beta= 0.70
     Davidson diagonalization with overlap
     ethr =  1.74E-08,  avg # of iterations =  3.0

     total cpu time spent up to now is      537.8 secs

     total energy              =    -278.71317194 Ry
     estimated scf accuracy    <       0.00000463 Ry

     iteration #  4     ecut=    90.00 Ry     beta= 0.70
     Davidson diagonalization with overlap
     ethr =  7.23E-09,  avg # of iterations =  2.4

     total cpu time spent up to now is      547.2 secs

     total energy              =    -278.71317270 Ry
     estimated scf accuracy    <       0.00000013 Ry

     iteration #  5     ecut=    90.00 Ry     beta= 0.70
     Davidson diagonalization with overlap
     ethr =  2.03E-10,  avg # of iterations =  5.7

     total cpu time spent up to now is      562.6 secs

     total energy              =    -278.71317278 Ry
     estimated scf accuracy    <       0.00000029 Ry

     iteration #  6     ecut=    90.00 Ry     beta= 0.70
     Davidson diagonalization with overlap
     ethr =  2.03E-10,  avg # of iterations =  3.0

     total cpu time spent up to now is      573.3 secs

     total energy              =    -278.71317280 Ry
     estimated scf accuracy    <       0.00000002 Ry

     iteration #  7     ecut=    90.00 Ry     beta= 0.70
     Davidson diagonalization with overlap
     ethr =  3.60E-11,  avg # of iterations =  3.3

     total cpu time spent up to now is      585.0 secs

     End of self-consistent calculation

     Number of k-points >= 100: set verbosity='high' to print the bands.

     highest occupied level (ev):    -3.9998

!    total energy              =    -278.71317281 Ry
     estimated scf accuracy    <          1.4E-09 Ry

     The total energy is the sum of the following terms:
     one-electron contribution =    -241.62342442 Ry
     hartree contribution      =     141.35102459 Ry
     xc contribution           =     -70.56162808 Ry
     ewald contribution        =    -107.87914490 Ry

     convergence has been achieved in   7 iterations

     Forces acting on atoms (cartesian axes, Ry/au):

     atom    1 type  2   force =     0.00000000    0.00432531   -0.00148494
     atom    2 type  2   force =     0.00000000   -0.00432528   -0.00148489
     atom    3 type  2   force =     0.00000000    0.00432529   -0.00148490
     atom    4 type  2   force =     0.00000000   -0.00432526   -0.00148488
     atom    5 type  2   force =     0.00000000    0.00657763   -0.00033313
     atom    6 type  2   force =     0.00000000   -0.00657762   -0.00033309
     atom    7 type  2   force =     0.00000000    0.00657761   -0.00033310
     atom    8 type  2   force =     0.00000000   -0.00657760   -0.00033307
     atom    9 type  1   force =     0.00000000   -0.00132002    0.00063290
     atom   10 type  1   force =     0.00000000    0.00132002    0.00063290
     atom   11 type  1   force =     0.00000000   -0.00132001    0.00063296
     atom   12 type  1   force =     0.00000000    0.00132002    0.00063293
     atom   13 type  1   force =     0.00000000    0.00085719    0.00020980
     atom   14 type  1   force =     0.00000000   -0.00085718    0.00020979
     atom   15 type  1   force =     0.00000000    0.00085714    0.00020976
     atom   16 type  1   force =     0.00000000   -0.00085717    0.00020977
     atom   17 type  1   force =     0.00082956   -0.00538300    0.00048768
     atom   18 type  1   force =    -0.00082955    0.00538298    0.00048766
     atom   19 type  1   force =     0.00082955    0.00538298    0.00048766
     atom   20 type  1   force =    -0.00082956   -0.00538300    0.00048768
     atom   21 type  1   force =     0.00082950   -0.00538296    0.00048764
     atom   22 type  1   force =    -0.00082947    0.00538295    0.00048763
     atom   23 type  1   force =     0.00082947    0.00538295    0.00048763
     atom   24 type  1   force =    -0.00082950   -0.00538296    0.00048764

     Total force =     0.022540     Total SCF correction =     0.000039


     Computing stress (Cartesian axis) and pressure

          total   stress  (Ry/bohr**3)                   (kbar)     P=       -0.66
  -0.00002253   0.00000000   0.00000000           -3.31        0.00        0.00
   0.00000000   0.00000620   0.00000000            0.00        0.91        0.00
   0.00000000   0.00000000   0.00000286            0.00        0.00        0.42

     Energy error            =      1.2E-03 Ry
     Gradient error          =      6.6E-03 Ry/Bohr

     number of scf cycles    =   5
     number of bfgs steps    =   4

     energy             old  =    -278.7120079997 Ry
     energy             new  =    -278.7131728104 Ry

     CASE: energy            _new < energy            _old

     new trust radius        =       0.0157007223 bohr
     new conv_thr            =       0.0000000066 Ry


ATOMIC_POSITIONS (crystal)
O                0.0000000000        0.6630156171        0.0605832140
O                0.0000000000        0.3369843651        0.5605831949
O                0.5000000000        0.1630156577        0.0605831702
O                0.5000000000        0.8369843497        0.5605831820
O                0.5000000000        0.8318297487        0.9351605825
O                0.5000000000        0.1681702530        0.4351605652
O                0.0000000000        0.3318297287        0.9351605986
O                0.0000000000        0.6681702813        0.4351606077
H                0.0000000000        0.6618875994        0.1953688711
H                0.0000000000        0.3381123816        0.6953688450
H                0.5000000000        0.1618876530        0.1953688230
H                0.5000000000        0.8381123602        0.6953688346
H                0.0000000000        0.5418375964        0.0210617649
H                0.0000000000        0.4581623904        0.5210617415
H                0.5000000000        0.0418376341        0.0210617169
H                0.5000000000        0.9581623701        0.5210617218
H                0.6752983640        0.7704838214        0.9829128203
H                0.3247016341        0.2295161745        0.4829128096
H                0.6752983659        0.2295161745        0.4829128096
H                0.3247016360        0.7704838214        0.9829128203
H                0.1752983652        0.2704838008        0.9829128389
H                0.8247016369        0.7295162100        0.4829128471
H                0.1752983631        0.7295162100        0.4829128471
H                0.8247016348        0.2704838008        0.9829128389



     Writing config-only to output data dir ./iceIh_vdw/iceIh_vdw.save/ :
     XML data file
     NEW-OLD atomic charge density approx. for the potential

     total cpu time spent up to now is      595.3 secs

     per-process dynamical memory:    62.5 Mb

     Self-consistent Calculation

     iteration #  1     ecut=    90.00 Ry     beta= 0.70
     Davidson diagonalization with overlap
     ethr =  1.00E-06,  avg # of iterations =  4.0

     total cpu time spent up to now is      610.9 secs

     total energy              =    -278.71377176 Ry
     estimated scf accuracy    <       0.00019251 Ry

     iteration #  2     ecut=    90.00 Ry     beta= 0.70
     Davidson diagonalization with overlap
     ethr =  3.01E-07,  avg # of iterations =  2.0

     total cpu time spent up to now is      621.1 secs

     total energy              =    -278.71380324 Ry
     estimated scf accuracy    <       0.00003034 Ry

     iteration #  3     ecut=    90.00 Ry     beta= 0.70
     Davidson diagonalization with overlap
     ethr =  4.74E-08,  avg # of iterations =  2.0

     total cpu time spent up to now is      631.4 secs

     total energy              =    -278.71381120 Ry
     estimated scf accuracy    <       0.00000281 Ry

     iteration #  4     ecut=    90.00 Ry     beta= 0.70
     Davidson diagonalization with overlap
     ethr =  4.39E-09,  avg # of iterations =  2.0

     total cpu time spent up to now is      639.8 secs

     total energy              =    -278.71381131 Ry
     estimated scf accuracy    <       0.00000035 Ry

     iteration #  5     ecut=    90.00 Ry     beta= 0.70
     Davidson diagonalization with overlap
     ethr =  5.39E-10,  avg # of iterations =  2.9

     total cpu time spent up to now is      650.9 secs

     total energy              =    -278.71381144 Ry
     estimated scf accuracy    <       0.00000008 Ry

     iteration #  6     ecut=    90.00 Ry     beta= 0.70
     Davidson diagonalization with overlap
     ethr =  1.26E-10,  avg # of iterations =  2.0

     total cpu time spent up to now is      659.7 secs

     total energy              =    -278.71381144 Ry
     estimated scf accuracy    <       0.00000001 Ry

     iteration #  7     ecut=    90.00 Ry     beta= 0.70
     Davidson diagonalization with overlap
     ethr =  2.27E-11,  avg # of iterations =  2.9

     total cpu time spent up to now is      671.2 secs

     End of self-consistent calculation

     Number of k-points >= 100: set verbosity='high' to print the bands.

     highest occupied level (ev):    -4.0060

!    total energy              =    -278.71381145 Ry
     estimated scf accuracy    <          1.4E-09 Ry

     The total energy is the sum of the following terms:
     one-electron contribution =    -241.50040081 Ry
     hartree contribution      =     141.29149085 Ry
     xc contribution           =     -70.54810617 Ry
     ewald contribution        =    -107.95679532 Ry

     convergence has been achieved in   7 iterations

     Forces acting on atoms (cartesian axes, Ry/au):

     atom    1 type  2   force =     0.00000000    0.00098912    0.00138971
     atom    2 type  2   force =     0.00000000   -0.00098906    0.00138961
     atom    3 type  2   force =     0.00000000    0.00098908    0.00138966
     atom    4 type  2   force =     0.00000000   -0.00098908    0.00138966
     atom    5 type  2   force =     0.00000000    0.00031309    0.00279410
     atom    6 type  2   force =     0.00000000   -0.00031309    0.00279411
     atom    7 type  2   force =     0.00000000    0.00031307    0.00279412
     atom    8 type  2   force =     0.00000000   -0.00031309    0.00279412
     atom    9 type  1   force =     0.00000000    0.00077319   -0.00056332
     atom   10 type  1   force =     0.00000000   -0.00077317   -0.00056324
     atom   11 type  1   force =     0.00000000    0.00077314   -0.00056327
     atom   12 type  1   force =     0.00000000   -0.00077314   -0.00056327
     atom   13 type  1   force =     0.00000000    0.00134610   -0.00124107
     atom   14 type  1   force =     0.00000000   -0.00134616   -0.00124103
     atom   15 type  1   force =     0.00000000    0.00134614   -0.00124102
     atom   16 type  1   force =     0.00000000   -0.00134613   -0.00124103
     atom   17 type  1   force =     0.00156628   -0.00175821   -0.00118971
     atom   18 type  1   force =    -0.00156627    0.00175821   -0.00118972
     atom   19 type  1   force =     0.00156627    0.00175821   -0.00118972
     atom   20 type  1   force =    -0.00156628   -0.00175821   -0.00118971
     atom   21 type  1   force =     0.00156627   -0.00175819   -0.00118974
     atom   22 type  1   force =    -0.00156629    0.00175819   -0.00118974
     atom   23 type  1   force =     0.00156629    0.00175819   -0.00118974
     atom   24 type  1   force =    -0.00156627   -0.00175819   -0.00118974

     Total force =     0.010771     Total SCF correction =     0.000032


     Computing stress (Cartesian axis) and pressure

          total   stress  (Ry/bohr**3)                   (kbar)     P=       -1.58
  -0.00001941   0.00000000   0.00000000           -2.86        0.00        0.00
   0.00000000  -0.00000470   0.00000000            0.00       -0.69        0.00
   0.00000000   0.00000000  -0.00000820            0.00        0.00       -1.21

     Energy error            =      6.4E-04 Ry
     Gradient error          =      2.8E-03 Ry/Bohr

     number of scf cycles    =   6
     number of bfgs steps    =   5

     energy             old  =    -278.7131728104 Ry
     energy             new  =    -278.7138114456 Ry

     CASE: energy            _new < energy            _old

     new trust radius        =       0.0057196449 bohr
     new conv_thr            =       0.0000000028 Ry


ATOMIC_POSITIONS (crystal)
O                0.0000000000        0.6632340844        0.0606238670
O                0.0000000000        0.3367659033        0.5606238416
O                0.5000000000        0.1632341189        0.0606238214
O                0.5000000000        0.8367658877        0.5606238336
O                0.5000000000        0.8320503366        0.9354959386
O                0.5000000000        0.1679496640        0.4354959230
O                0.0000000000        0.3320503171        0.9354959548
O                0.0000000000        0.6679496905        0.4354959644
H                0.0000000000        0.6618423219        0.1952713390
H                0.0000000000        0.3381576596        0.6952713200
H                0.5000000000        0.1618423742        0.1952712979
H                0.5000000000        0.8381576394        0.6952713089
H                0.0000000000        0.5420964809        0.0210444547
H                0.0000000000        0.4579035029        0.5210444326
H                0.5000000000        0.0420965195        0.0210444062
H                0.5000000000        0.9579034854        0.5210444112
H                0.6751911904        0.7701439488        0.9827822368
H                0.3248088074        0.2298560469        0.4827822250
H                0.6751911926        0.2298560469        0.4827822250
H                0.3248088096        0.7701439488        0.9827822368
H                0.1751911878        0.2701439303        0.9827822525
H                0.8248088144        0.7298560807        0.4827822613
H                0.1751911856        0.7298560807        0.4827822613
H                0.8248088122        0.2701439303        0.9827822525



     Writing config-only to output data dir ./iceIh_vdw/iceIh_vdw.save/ :
     XML data file
     NEW-OLD atomic charge density approx. for the potential

     total cpu time spent up to now is      681.4 secs

     per-process dynamical memory:    62.5 Mb

     Self-consistent Calculation

     iteration #  1     ecut=    90.00 Ry     beta= 0.70
     Davidson diagonalization with overlap
     ethr =  1.00E-06,  avg # of iterations =  3.0

     Threshold (ethr) on eigenvalues was too large:
     Diagonalizing with lowered threshold

     Davidson diagonalization with overlap
     ethr =  3.71E-08,  avg # of iterations =  2.0

     total cpu time spent up to now is      702.5 secs

     total energy              =    -278.71394219 Ry
     estimated scf accuracy    <       0.00002827 Ry

     iteration #  2     ecut=    90.00 Ry     beta= 0.70
     Davidson diagonalization with overlap
     ethr =  4.42E-08,  avg # of iterations =  2.0

     total cpu time spent up to now is      711.1 secs

     total energy              =    -278.71394556 Ry
     estimated scf accuracy    <       0.00000117 Ry

     iteration #  3     ecut=    90.00 Ry     beta= 0.70
     Davidson diagonalization with overlap
     ethr =  1.83E-09,  avg # of iterations =  2.8

     total cpu time spent up to now is      722.0 secs

     total energy              =    -278.71394587 Ry
     estimated scf accuracy    <       0.00000017 Ry

     iteration #  4     ecut=    90.00 Ry     beta= 0.70
     Davidson diagonalization with overlap
     ethr =  2.65E-10,  avg # of iterations =  2.1

     total cpu time spent up to now is      732.2 secs

     total energy              =    -278.71394591 Ry
     estimated scf accuracy    <       0.00000003 Ry

     iteration #  5     ecut=    90.00 Ry     beta= 0.70
     Davidson diagonalization with overlap
     ethr =  3.97E-11,  avg # of iterations =  2.0

     total cpu time spent up to now is      742.2 secs

     total energy              =    -278.71394591 Ry
     estimated scf accuracy    <          3.2E-09 Ry

     iteration #  6     ecut=    90.00 Ry     beta= 0.70
     Davidson diagonalization with overlap
     ethr =  5.01E-12,  avg # of iterations =  2.2

     total cpu time spent up to now is      752.1 secs

     End of self-consistent calculation

     Number of k-points >= 100: set verbosity='high' to print the bands.

     highest occupied level (ev):    -4.0107

!    total energy              =    -278.71394591 Ry
     estimated scf accuracy    <          2.2E-10 Ry

     The total energy is the sum of the following terms:
     one-electron contribution =    -241.50999895 Ry
     hartree contribution      =     141.29578950 Ry
     xc contribution           =     -70.54870047 Ry
     ewald contribution        =    -107.95103599 Ry

     convergence has been achieved in   6 iterations

     Forces acting on atoms (cartesian axes, Ry/au):

     atom    1 type  2   force =     0.00000000    0.00071671    0.00005496
     atom    2 type  2   force =     0.00000000   -0.00071677    0.00005505
     atom    3 type  2   force =     0.00000000    0.00071675    0.00005502
     atom    4 type  2   force =     0.00000000   -0.00071674    0.00005501
     atom    5 type  2   force =     0.00000000   -0.00127300    0.00302930
     atom    6 type  2   force =     0.00000000    0.00127299    0.00302930
     atom    7 type  2   force =     0.00000000   -0.00127297    0.00302929
     atom    8 type  2   force =     0.00000000    0.00127298    0.00302930
     atom    9 type  1   force =     0.00000000    0.00104255    0.00094756
     atom   10 type  1   force =     0.00000000   -0.00104253    0.00094749
     atom   11 type  1   force =     0.00000000    0.00104249    0.00094751
     atom   12 type  1   force =     0.00000000   -0.00104250    0.00094752
     atom   13 type  1   force =     0.00000000    0.00087344   -0.00137042
     atom   14 type  1   force =     0.00000000   -0.00087338   -0.00137042
     atom   15 type  1   force =     0.00000000    0.00087340   -0.00137039
     atom   16 type  1   force =     0.00000000   -0.00087340   -0.00137039
     atom   17 type  1   force =     0.00130317   -0.00074330   -0.00133070
     atom   18 type  1   force =    -0.00130317    0.00074331   -0.00133070
     atom   19 type  1   force =     0.00130317    0.00074331   -0.00133070
     atom   20 type  1   force =    -0.00130317   -0.00074330   -0.00133070
     atom   21 type  1   force =     0.00130320   -0.00074330   -0.00133072
     atom   22 type  1   force =    -0.00130320    0.00074329   -0.00133072
     atom   23 type  1   force =     0.00130320    0.00074329   -0.00133072
     atom   24 type  1   force =    -0.00130320   -0.00074330   -0.00133072

     Total force =     0.009794     Total SCF correction =     0.000052


     Computing stress (Cartesian axis) and pressure

          total   stress  (Ry/bohr**3)                   (kbar)     P=       -1.44
  -0.00002023   0.00000000   0.00000000           -2.98        0.00        0.00
   0.00000000  -0.00000571   0.00000000            0.00       -0.84        0.00
   0.00000000   0.00000000  -0.00000339            0.00        0.00       -0.50

     Energy error            =      1.3E-04 Ry
     Gradient error          =      3.0E-03 Ry/Bohr

     number of scf cycles    =   7
     number of bfgs steps    =   6

     energy             old  =    -278.7138114456 Ry
     energy             new  =    -278.7139459128 Ry

     CASE: energy            _new < energy            _old

     new trust radius        =       0.0062916093 bohr
     new conv_thr            =       0.0000000013 Ry


ATOMIC_POSITIONS (crystal)
O                0.0000000000        0.6634536135        0.0606393195
O                0.0000000000        0.3365463730        0.5606392984
O                0.5000000000        0.1634536475        0.0606392785
O                0.5000000000        0.8365463599        0.5606392901
O                0.5000000000        0.8321566025        0.9359317898
O                0.5000000000        0.1678433966        0.4359317757
O                0.0000000000        0.3321565854        0.9359318053
O                0.0000000000        0.6678434213        0.4359318167
H                0.0000000000        0.6618696007        0.1952758903
H                0.0000000000        0.3381303821        0.6952758700
H                0.5000000000        0.1618696488        0.1952758504
H                0.5000000000        0.8381303647        0.6952758615
H                0.0000000000        0.5423442739        0.0209436585
H                0.0000000000        0.4576557129        0.5209436368
H                0.5000000000        0.0423443092        0.0209436111
H                0.5000000000        0.9576556954        0.5209436162
H                0.6752586908        0.7698281017        0.9826047069
H                0.3247413070        0.2301718943        0.4826046939
H                0.6752586930        0.2301718943        0.4826046939
H                0.3247413092        0.7698281017        0.9826047069
H                0.1752586886        0.2698280848        0.9826047194
H                0.8247413143        0.7301719254        0.4826047284
H                0.1752586857        0.7301719254        0.4826047284
H                0.8247413114        0.2698280848        0.9826047194



     Writing config-only to output data dir ./iceIh_vdw/iceIh_vdw.save/ :
     XML data file
     NEW-OLD atomic charge density approx. for the potential

     total cpu time spent up to now is      762.3 secs

     per-process dynamical memory:    62.5 Mb

     Self-consistent Calculation

     iteration #  1     ecut=    90.00 Ry     beta= 0.70
     Davidson diagonalization with overlap
     ethr =  1.00E-06,  avg # of iterations =  3.0

     Threshold (ethr) on eigenvalues was too large:
     Diagonalizing with lowered threshold

     Davidson diagonalization with overlap
     ethr =  4.51E-08,  avg # of iterations =  2.1

     total cpu time spent up to now is      783.3 secs

     total energy              =    -278.71407157 Ry
     estimated scf accuracy    <       0.00003288 Ry

     iteration #  2     ecut=    90.00 Ry     beta= 0.70
     Davidson diagonalization with overlap
     ethr =  5.14E-08,  avg # of iterations =  2.0

     total cpu time spent up to now is      792.9 secs

     total energy              =    -278.71407588 Ry
     estimated scf accuracy    <       0.00000380 Ry

     iteration #  3     ecut=    90.00 Ry     beta= 0.70
     Davidson diagonalization with overlap
     ethr =  5.93E-09,  avg # of iterations =  3.0

     total cpu time spent up to now is      804.3 secs

     total energy              =    -278.71407685 Ry
     estimated scf accuracy    <       0.00000136 Ry

     iteration #  4     ecut=    90.00 Ry     beta= 0.70
     Davidson diagonalization with overlap
     ethr =  2.12E-09,  avg # of iterations =  2.4

     total cpu time spent up to now is      813.9 secs

     total energy              =    -278.71407709 Ry
     estimated scf accuracy    <       0.00000003 Ry

     iteration #  5     ecut=    90.00 Ry     beta= 0.70
     Davidson diagonalization with overlap
     ethr =  5.06E-11,  avg # of iterations =  5.8

     total cpu time spent up to now is      830.0 secs

     total energy              =    -278.71407710 Ry
     estimated scf accuracy    <       0.00000008 Ry

     iteration #  6     ecut=    90.00 Ry     beta= 0.70
     Davidson diagonalization with overlap
     ethr =  5.06E-11,  avg # of iterations =  3.3

     total cpu time spent up to now is      842.0 secs

     End of self-consistent calculation

     Number of k-points >= 100: set verbosity='high' to print the bands.

     highest occupied level (ev):    -4.0141

!    total energy              =    -278.71407711 Ry
     estimated scf accuracy    <          2.2E-10 Ry

     The total energy is the sum of the following terms:
     one-electron contribution =    -241.49662999 Ry
     hartree contribution      =     141.29017616 Ry
     xc contribution           =     -70.54711711 Ry
     ewald contribution        =    -107.96050617 Ry

     convergence has been achieved in   6 iterations

     Forces acting on atoms (cartesian axes, Ry/au):

     atom    1 type  2   force =     0.00000000    0.00032533   -0.00015599
     atom    2 type  2   force =     0.00000000   -0.00032533   -0.00015599
     atom    3 type  2   force =     0.00000000    0.00032533   -0.00015598
     atom    4 type  2   force =     0.00000000   -0.00032533   -0.00015599
     atom    5 type  2   force =     0.00000000   -0.00190968    0.00244933
     atom    6 type  2   force =     0.00000000    0.00190967    0.00244932
     atom    7 type  2   force =     0.00000000   -0.00190964    0.00244931
     atom    8 type  2   force =     0.00000000    0.00190964    0.00244931
     atom    9 type  1   force =     0.00000000    0.00111377    0.00107959
     atom   10 type  1   force =     0.00000000   -0.00111375    0.00107959
     atom   11 type  1   force =     0.00000000    0.00111372    0.00107958
     atom   12 type  1   force =     0.00000000   -0.00111372    0.00107959
     atom   13 type  1   force =     0.00000000    0.00068631   -0.00117932
     atom   14 type  1   force =     0.00000000   -0.00068631   -0.00117930
     atom   15 type  1   force =     0.00000000    0.00068631   -0.00117927
     atom   16 type  1   force =     0.00000000   -0.00068630   -0.00117928
     atom   17 type  1   force =     0.00094948   -0.00020260   -0.00109681
     atom   18 type  1   force =    -0.00094947    0.00020260   -0.00109681
     atom   19 type  1   force =     0.00094947    0.00020260   -0.00109681
     atom   20 type  1   force =    -0.00094948   -0.00020260   -0.00109681
     atom   21 type  1   force =     0.00094951   -0.00020260   -0.00109682
     atom   22 type  1   force =    -0.00094952    0.00020259   -0.00109682
     atom   23 type  1   force =     0.00094952    0.00020259   -0.00109682
     atom   24 type  1   force =    -0.00094951   -0.00020260   -0.00109682

     Total force =     0.008564     Total SCF correction =     0.000043


     Computing stress (Cartesian axis) and pressure

          total   stress  (Ry/bohr**3)                   (kbar)     P=       -1.63
  -0.00002095   0.00000000   0.00000000           -3.08        0.00        0.00
   0.00000000  -0.00000691   0.00000000            0.00       -1.02        0.00
   0.00000000   0.00000000  -0.00000532            0.00        0.00       -0.78

     Energy error            =      1.3E-04 Ry
     Gradient error          =      2.4E-03 Ry/Bohr

     number of scf cycles    =   8
     number of bfgs steps    =   7

     energy             old  =    -278.7139459128 Ry
     energy             new  =    -278.7140771143 Ry

     CASE: energy            _new < energy            _old

     new trust radius        =       0.0094374140 bohr
     new conv_thr            =       0.0000000013 Ry


ATOMIC_POSITIONS (crystal)
O                0.0000000000        0.6637279399        0.0606872098
O                0.0000000000        0.3362720527        0.5606871825
O                0.5000000000        0.1637279679        0.0606871673
O                0.5000000000        0.8362720390        0.5606871796
O                0.5000000000        0.8321573707        0.9366072133
O                0.5000000000        0.1678426263        0.4366072009
O                0.0000000000        0.3321573570        0.9366072280
O                0.0000000000        0.6678426472        0.4366072406
H                0.0000000000        0.6620042664        0.1953400601
H                0.0000000000        0.3379957194        0.6953400464
H                0.5000000000        0.1620043050        0.1953400266
H                0.5000000000        0.8379957077        0.6953400371
H                0.0000000000        0.5426949189        0.0207186411
H                0.0000000000        0.4573050646        0.5207186240
H                0.5000000000        0.0426949550        0.0207186004
H                0.5000000000        0.9573050512        0.5207186046
H                0.6755416929        0.7694202746        0.9823234729
H                0.3244583056        0.2305797216        0.4823234588
H                0.6755416944        0.2305797216        0.4823234588
H                0.3244583071        0.7694202746        0.9823234729
H                0.1755416932        0.2694202609        0.9823234803
H                0.8244583079        0.7305797484        0.4823234899
H                0.1755416921        0.7305797484        0.4823234899
H                0.8244583068        0.2694202609        0.9823234803



     Writing config-only to output data dir ./iceIh_vdw/iceIh_vdw.save/ :
     XML data file
     NEW-OLD atomic charge density approx. for the potential

     total cpu time spent up to now is      852.1 secs

     per-process dynamical memory:    63.5 Mb

     Self-consistent Calculation

     iteration #  1     ecut=    90.00 Ry     beta= 0.70
     Davidson diagonalization with overlap
     ethr =  1.00E-06,  avg # of iterations =  3.1

     total cpu time spent up to now is      865.6 secs

     total energy              =    -278.71419928 Ry
     estimated scf accuracy    <       0.00006594 Ry

     iteration #  2     ecut=    90.00 Ry     beta= 0.70
     Davidson diagonalization with overlap
     ethr =  1.03E-07,  avg # of iterations =  2.4

     total cpu time spent up to now is      876.0 secs

     total energy              =    -278.71421107 Ry
     estimated scf accuracy    <       0.00001720 Ry

     iteration #  3     ecut=    90.00 Ry     beta= 0.70
     Davidson diagonalization with overlap
     ethr =  2.69E-08,  avg # of iterations =  3.0

     total cpu time spent up to now is      887.1 secs

     total energy              =    -278.71421557 Ry
     estimated scf accuracy    <       0.00000228 Ry

     iteration #  4     ecut=    90.00 Ry     beta= 0.70
     Davidson diagonalization with overlap
     ethr =  3.56E-09,  avg # of iterations =  2.0

     total cpu time spent up to now is      895.9 secs

     total energy              =    -278.71421579 Ry
     estimated scf accuracy    <       0.00000015 Ry

     iteration #  5     ecut=    90.00 Ry     beta= 0.70
     Davidson diagonalization with overlap
     ethr =  2.41E-10,  avg # of iterations =  4.9

     total cpu time spent up to now is      909.1 secs

     total energy              =    -278.71421585 Ry
     estimated scf accuracy    <       0.00000009 Ry

     iteration #  6     ecut=    90.00 Ry     beta= 0.70
     Davidson diagonalization with overlap
     ethr =  1.38E-10,  avg # of iterations =  3.0

     total cpu time spent up to now is      919.2 secs

     total energy              =    -278.71421587 Ry
     estimated scf accuracy    <          2.0E-09 Ry

     iteration #  7     ecut=    90.00 Ry     beta= 0.70
     Davidson diagonalization with overlap
     ethr =  3.06E-12,  avg # of iterations =  5.5

     total cpu time spent up to now is      934.5 secs

     total energy              =    -278.71421587 Ry
     estimated scf accuracy    <          5.8E-09 Ry

     iteration #  8     ecut=    90.00 Ry     beta= 0.70
     Davidson diagonalization with overlap
     ethr =  3.06E-12,  avg # of iterations =  3.5

     total cpu time spent up to now is      946.8 secs

     End of self-consistent calculation

     Number of k-points >= 100: set verbosity='high' to print the bands.

     highest occupied level (ev):    -4.0189

!    total energy              =    -278.71421587 Ry
     estimated scf accuracy    <          3.3E-11 Ry

     The total energy is the sum of the following terms:
     one-electron contribution =    -241.48176841 Ry
     hartree contribution      =     141.28494875 Ry
     xc contribution           =     -70.54546872 Ry
     ewald contribution        =    -107.97192749 Ry

     convergence has been achieved in   8 iterations

     Forces acting on atoms (cartesian axes, Ry/au):

     atom    1 type  2   force =     0.00000000    0.00007597   -0.00037286
     atom    2 type  2   force =     0.00000000   -0.00007610   -0.00037266
     atom    3 type  2   force =     0.00000000    0.00007606   -0.00037273
     atom    4 type  2   force =     0.00000000   -0.00007603   -0.00037275
     atom    5 type  2   force =     0.00000000   -0.00182811    0.00094031
     atom    6 type  2   force =     0.00000000    0.00182810    0.00094030
     atom    7 type  2   force =     0.00000000   -0.00182807    0.00094028
     atom    8 type  2   force =     0.00000000    0.00182810    0.00094030
     atom    9 type  1   force =     0.00000000    0.00089326    0.00089827
     atom   10 type  1   force =     0.00000000   -0.00089325    0.00089812
     atom   11 type  1   force =     0.00000000    0.00089322    0.00089818
     atom   12 type  1   force =     0.00000000   -0.00089323    0.00089819
     atom   13 type  1   force =     0.00000000    0.00036328   -0.00058912
     atom   14 type  1   force =     0.00000000   -0.00036315   -0.00058915
     atom   15 type  1   force =     0.00000000    0.00036319   -0.00058913
     atom   16 type  1   force =     0.00000000   -0.00036321   -0.00058912
     atom   17 type  1   force =     0.00026035    0.00008188   -0.00043830
     atom   18 type  1   force =    -0.00026035   -0.00008187   -0.00043830
     atom   19 type  1   force =     0.00026035   -0.00008187   -0.00043830
     atom   20 type  1   force =    -0.00026035    0.00008188   -0.00043830
     atom   21 type  1   force =     0.00026038    0.00008187   -0.00043830
     atom   22 type  1   force =    -0.00026037   -0.00008189   -0.00043831
     atom   23 type  1   force =     0.00026037   -0.00008189   -0.00043831
     atom   24 type  1   force =    -0.00026038    0.00008187   -0.00043830

     Total force =     0.005287     Total SCF correction =     0.000013


     Computing stress (Cartesian axis) and pressure

          total   stress  (Ry/bohr**3)                   (kbar)     P=       -1.90
  -0.00002198   0.00000000   0.00000000           -3.23        0.00        0.00
   0.00000000  -0.00000716  -0.00000000            0.00       -1.05       -0.00
   0.00000000  -0.00000000  -0.00000965            0.00       -0.00       -1.42

     Energy error            =      1.4E-04 Ry
     Gradient error          =      1.8E-03 Ry/Bohr

     number of scf cycles    =   9
     number of bfgs steps    =   8

     energy             old  =    -278.7140771143 Ry
     energy             new  =    -278.7142158685 Ry

     CASE: energy            _new < energy            _old

     new trust radius        =       0.0054568006 bohr
     new conv_thr            =       0.0000000014 Ry


ATOMIC_POSITIONS (crystal)
O                0.0000000000        0.6638606885        0.0607160014
O                0.0000000000        0.3361392943        0.5607159907
O                0.5000000000        0.1638607220        0.0607159710
O                0.5000000000        0.8361392872        0.5607159812
O                0.5000000000        0.8320298241        0.9369734067
O                0.5000000000        0.1679701715        0.4369733947
O                0.0000000000        0.3320298143        0.9369734196
O                0.0000000000        0.6679701911        0.4369734345
H                0.0000000000        0.6621555369        0.1954257487
H                0.0000000000        0.3378444512        0.6954257237
H                0.5000000000        0.1621555678        0.1954257092
H                0.5000000000        0.8378444440        0.6954257209
H                0.0000000000        0.5428833188        0.0205492887
H                0.0000000000        0.4571166756        0.5205492708
H                0.5000000000        0.0428833462        0.0205492510
H                0.5000000000        0.9571166586        0.5205492554
H                0.6757902596        0.7692198937        0.9821678114
H                0.3242097394        0.2307801030        0.4821677967
H                0.6757902606        0.2307801030        0.4821677967
H                0.3242097404        0.7692198937        0.9821678114
H                0.1757902639        0.2692198815        0.9821678156
H                0.8242097380        0.7307801258        0.4821678251
H                0.1757902620        0.7307801258        0.4821678251
H                0.8242097361        0.2692198815        0.9821678156



     Writing config-only to output data dir ./iceIh_vdw/iceIh_vdw.save/ :
     XML data file
     NEW-OLD atomic charge density approx. for the potential

     total cpu time spent up to now is      957.0 secs

     per-process dynamical memory:    62.5 Mb

     Self-consistent Calculation

     iteration #  1     ecut=    90.00 Ry     beta= 0.70
     Davidson diagonalization with overlap
     ethr =  1.00E-06,  avg # of iterations =  3.0

     Threshold (ethr) on eigenvalues was too large:
     Diagonalizing with lowered threshold

     Davidson diagonalization with overlap
     ethr =  3.56E-08,  avg # of iterations =  2.3

     total cpu time spent up to now is      978.0 secs

     total energy              =    -278.71424819 Ry
     estimated scf accuracy    <       0.00002477 Ry

     iteration #  2     ecut=    90.00 Ry     beta= 0.70
     Davidson diagonalization with overlap
     ethr =  3.87E-08,  avg # of iterations =  3.0

     total cpu time spent up to now is      988.8 secs

     total energy              =    -278.71425191 Ry
     estimated scf accuracy    <       0.00000729 Ry

     iteration #  3     ecut=    90.00 Ry     beta= 0.70
     Davidson diagonalization with overlap
     ethr =  1.14E-08,  avg # of iterations =  3.0

     total cpu time spent up to now is      999.8 secs

     total energy              =    -278.71425398 Ry
     estimated scf accuracy    <       0.00000059 Ry

     iteration #  4     ecut=    90.00 Ry     beta= 0.70
     Davidson diagonalization with overlap
     ethr =  9.27E-10,  avg # of iterations =  2.0

     total cpu time spent up to now is     1007.8 secs

     total energy              =    -278.71425398 Ry
     estimated scf accuracy    <       0.00000010 Ry

     iteration #  5     ecut=    90.00 Ry     beta= 0.70
     Davidson diagonalization with overlap
     ethr =  1.53E-10,  avg # of iterations =  3.1

     total cpu time spent up to now is     1019.5 secs

     total energy              =    -278.71425402 Ry
     estimated scf accuracy    <       0.00000004 Ry

     iteration #  6     ecut=    90.00 Ry     beta= 0.70
     Davidson diagonalization with overlap
     ethr =  6.98E-11,  avg # of iterations =  2.1

     total cpu time spent up to now is     1028.8 secs

     End of self-consistent calculation

     Number of k-points >= 100: set verbosity='high' to print the bands.

     highest occupied level (ev):    -4.0210

!    total energy              =    -278.71425402 Ry
     estimated scf accuracy    <          5.2E-10 Ry

     The total energy is the sum of the following terms:
     one-electron contribution =    -241.47331617 Ry
     hartree contribution      =     141.28218500 Ry
     xc contribution           =     -70.54463123 Ry
     ewald contribution        =    -107.97849163 Ry

     convergence has been achieved in   6 iterations

     Forces acting on atoms (cartesian axes, Ry/au):

     atom    1 type  2   force =     0.00000000    0.00008533   -0.00015136
     atom    2 type  2   force =     0.00000000   -0.00008517   -0.00015157
     atom    3 type  2   force =     0.00000000    0.00008521   -0.00015149
     atom    4 type  2   force =     0.00000000   -0.00008524   -0.00015147
     atom    5 type  2   force =     0.00000000   -0.00104898   -0.00029561
     atom    6 type  2   force =     0.00000000    0.00104899   -0.00029562
     atom    7 type  2   force =     0.00000000   -0.00104898   -0.00029563
     atom    8 type  2   force =     0.00000000    0.00104895   -0.00029565
     atom    9 type  1   force =     0.00000000    0.00058058    0.00027555
     atom   10 type  1   force =     0.00000000   -0.00058058    0.00027571
     atom   11 type  1   force =     0.00000000    0.00058057    0.00027566
     atom   12 type  1   force =     0.00000000   -0.00058057    0.00027564
     atom   13 type  1   force =     0.00000000    0.00022106   -0.00006730
     atom   14 type  1   force =     0.00000000   -0.00022119   -0.00006724
     atom   15 type  1   force =     0.00000000    0.00022113   -0.00006726
     atom   16 type  1   force =     0.00000000   -0.00022111   -0.00006726
     atom   17 type  1   force =    -0.00009981   -0.00013349    0.00011936
     atom   18 type  1   force =     0.00009981    0.00013349    0.00011936
     atom   19 type  1   force =    -0.00009981    0.00013349    0.00011936
     atom   20 type  1   force =     0.00009981   -0.00013349    0.00011936
     atom   21 type  1   force =    -0.00009982   -0.00013348    0.00011935
     atom   22 type  1   force =     0.00009980    0.00013349    0.00011936
     atom   23 type  1   force =    -0.00009980    0.00013349    0.00011936
     atom   24 type  1   force =     0.00009982   -0.00013348    0.00011935

     Total force =     0.002660     Total SCF correction =     0.000031


     Computing stress (Cartesian axis) and pressure

          total   stress  (Ry/bohr**3)                   (kbar)     P=       -2.11
  -0.00002190   0.00000000   0.00000000           -3.22        0.00        0.00
   0.00000000  -0.00000668   0.00000000            0.00       -0.98        0.00
   0.00000000   0.00000000  -0.00001435            0.00        0.00       -2.11

     Energy error            =      3.8E-05 Ry
     Gradient error          =      1.0E-03 Ry/Bohr

     number of scf cycles    =  10
     number of bfgs steps    =   9

     energy             old  =    -278.7142158685 Ry
     energy             new  =    -278.7142540240 Ry

     CASE: energy            _new < energy            _old

     new trust radius        =       0.0015716933 bohr
     new conv_thr            =       0.0000000010 Ry


ATOMIC_POSITIONS (crystal)
O                0.0000000000        0.6638800345        0.0607230186
O                0.0000000000        0.3361199606        0.5607229903
O                0.5000000000        0.1638800587        0.0607229776
O                0.5000000000        0.8361199479        0.5607229896
O                0.5000000000        0.8319257632        0.9369931673
O                0.5000000000        0.1680742325        0.4369931547
O                0.0000000000        0.3319257539        0.9369931786
O                0.0000000000        0.6680742496        0.4369931921
H                0.0000000000        0.6622327616        0.1954576660
H                0.0000000000        0.3377672272        0.6954576539
H                0.5000000000        0.1622327897        0.1954576355
H                0.5000000000        0.8377672217        0.6954576458
H                0.0000000000        0.5429193322        0.0205094513
H                0.0000000000        0.4570806517        0.5205094383
H                0.5000000000        0.0429193654        0.0205094179
H                0.5000000000        0.9570806416        0.5205094216
H                0.6758546579        0.7691852002        0.9821583829
H                0.3241453415        0.2308147962        0.4821583684
H                0.6758546585        0.2308147962        0.4821583684
H                0.3241453421        0.7691852002        0.9821583829
H                0.1758546617        0.2691851894        0.9821583859
H                0.8241453373        0.7308148182        0.4821583963
H                0.1758546627        0.7308148182        0.4821583963
H                0.8241453383        0.2691851894        0.9821583859



     Writing config-only to output data dir ./iceIh_vdw/iceIh_vdw.save/ :
     XML data file
     NEW-OLD atomic charge density approx. for the potential

     total cpu time spent up to now is     1039.1 secs

     per-process dynamical memory:    62.5 Mb

     Self-consistent Calculation

     iteration #  1     ecut=    90.00 Ry     beta= 0.70
     Davidson diagonalization with overlap
     ethr =  1.00E-06,  avg # of iterations =  2.0

     Threshold (ethr) on eigenvalues was too large:
     Diagonalizing with lowered threshold

     Davidson diagonalization with overlap
     ethr =  2.07E-09,  avg # of iterations =  3.0

     total cpu time spent up to now is     1060.0 secs

     total energy              =    -278.71426140 Ry
     estimated scf accuracy    <       0.00000178 Ry

     iteration #  2     ecut=    90.00 Ry     beta= 0.70
     Davidson diagonalization with overlap
     ethr =  2.78E-09,  avg # of iterations =  3.0

     total cpu time spent up to now is     1071.5 secs

     total energy              =    -278.71426169 Ry
     estimated scf accuracy    <       0.00000089 Ry

     iteration #  3     ecut=    90.00 Ry     beta= 0.70
     Davidson diagonalization with overlap
     ethr =  1.39E-09,  avg # of iterations =  3.0

     total cpu time spent up to now is     1082.1 secs

     total energy              =    -278.71426192 Ry
     estimated scf accuracy    <       0.00000003 Ry

     iteration #  4     ecut=    90.00 Ry     beta= 0.70
     Davidson diagonalization with overlap
     ethr =  4.12E-11,  avg # of iterations =  3.4

     total cpu time spent up to now is     1093.5 secs

     total energy              =    -278.71426192 Ry
     estimated scf accuracy    <       0.00000002 Ry

     iteration #  5     ecut=    90.00 Ry     beta= 0.70
     Davidson diagonalization with overlap
     ethr =  2.47E-11,  avg # of iterations =  3.1

     total cpu time spent up to now is     1104.9 secs

     total energy              =    -278.71426193 Ry
     estimated scf accuracy    <          2.3E-09 Ry

     iteration #  6     ecut=    90.00 Ry     beta= 0.70
     Davidson diagonalization with overlap
     ethr =  3.53E-12,  avg # of iterations =  2.0

     total cpu time spent up to now is     1113.3 secs

     End of self-consistent calculation

     Number of k-points >= 100: set verbosity='high' to print the bands.

     highest occupied level (ev):    -4.0214

!    total energy              =    -278.71426193 Ry
     estimated scf accuracy    <          3.6E-10 Ry

     The total energy is the sum of the following terms:
     one-electron contribution =    -241.47333267 Ry
     hartree contribution      =     141.28245337 Ry
     xc contribution           =     -70.54472420 Ry
     ewald contribution        =    -107.97865843 Ry

     convergence has been achieved in   6 iterations

     Forces acting on atoms (cartesian axes, Ry/au):

     atom    1 type  2   force =     0.00000000    0.00015100   -0.00002493
     atom    2 type  2   force =     0.00000000   -0.00015117   -0.00002469
     atom    3 type  2   force =     0.00000000    0.00015110   -0.00002476
     atom    4 type  2   force =     0.00000000   -0.00015107   -0.00002479
     atom    5 type  2   force =     0.00000000   -0.00059716   -0.00058804
     atom    6 type  2   force =     0.00000000    0.00059715   -0.00058804
     atom    7 type  2   force =     0.00000000   -0.00059714   -0.00058805
     atom    8 type  2   force =     0.00000000    0.00059717   -0.00058803
     atom    9 type  1   force =     0.00000000    0.00043803    0.00002693
     atom   10 type  1   force =     0.00000000   -0.00043803    0.00002676
     atom   11 type  1   force =     0.00000000    0.00043802    0.00002683
     atom   12 type  1   force =     0.00000000   -0.00043802    0.00002684
     atom   13 type  1   force =     0.00000000    0.00018679    0.00008873
     atom   14 type  1   force =     0.00000000   -0.00018662    0.00008868
     atom   15 type  1   force =     0.00000000    0.00018667    0.00008871
     atom   16 type  1   force =     0.00000000   -0.00018670    0.00008872
     atom   17 type  1   force =    -0.00012517   -0.00030564    0.00024865
     atom   18 type  1   force =     0.00012517    0.00030564    0.00024864
     atom   19 type  1   force =    -0.00012517    0.00030564    0.00024864
     atom   20 type  1   force =     0.00012517   -0.00030564    0.00024865
     atom   21 type  1   force =    -0.00012517   -0.00030564    0.00024864
     atom   22 type  1   force =     0.00012518    0.00030562    0.00024864
     atom   23 type  1   force =    -0.00012518    0.00030562    0.00024864
     atom   24 type  1   force =     0.00012517   -0.00030564    0.00024864

     Total force =     0.002283     Total SCF correction =     0.000019


     Computing stress (Cartesian axis) and pressure

          total   stress  (Ry/bohr**3)                   (kbar)     P=       -2.13
  -0.00002130   0.00000000   0.00000000           -3.13        0.00        0.00
   0.00000000  -0.00000642  -0.00000000            0.00       -0.95       -0.00
   0.00000000  -0.00000000  -0.00001564            0.00       -0.00       -2.30

     Energy error            =      7.9E-06 Ry
     Gradient error          =      6.0E-04 Ry/Bohr

     bfgs converged in  11 scf cycles and  10 bfgs steps
     (criteria: energy <  1.0E-04 Ry, force <  1.0E-03 Ry/Bohr)

     End of BFGS Geometry Optimization

     Final energy             =    -278.7142619285 Ry

     File ./iceIh_vdw/iceIh_vdw.bfgs deleted, as requested
Begin final coordinates

ATOMIC_POSITIONS (crystal)
O                0.0000000000        0.6638800345        0.0607230186
O                0.0000000000        0.3361199606        0.5607229903
O                0.5000000000        0.1638800587        0.0607229776
O                0.5000000000        0.8361199479        0.5607229896
O                0.5000000000        0.8319257632        0.9369931673
O                0.5000000000        0.1680742325        0.4369931547
O                0.0000000000        0.3319257539        0.9369931786
O                0.0000000000        0.6680742496        0.4369931921
H                0.0000000000        0.6622327616        0.1954576660
H                0.0000000000        0.3377672272        0.6954576539
H                0.5000000000        0.1622327897        0.1954576355
H                0.5000000000        0.8377672217        0.6954576458
H                0.0000000000        0.5429193322        0.0205094513
H                0.0000000000        0.4570806517        0.5205094383
H                0.5000000000        0.0429193654        0.0205094179
H                0.5000000000        0.9570806416        0.5205094216
H                0.6758546579        0.7691852002        0.9821583829
H                0.3241453415        0.2308147962        0.4821583684
H                0.6758546585        0.2308147962        0.4821583684
H                0.3241453421        0.7691852002        0.9821583829
H                0.1758546617        0.2691851894        0.9821583859
H                0.8241453373        0.7308148182        0.4821583963
H                0.1758546627        0.7308148182        0.4821583963
H                0.8241453383        0.2691851894        0.9821583859
End final coordinates



     Writing all to output data dir ./iceIh_vdw/iceIh_vdw.save/ :
     XML data file, charge density, pseudopotentials, collected wavefunctions

     init_run     :      6.28s CPU      6.42s WALL (       1 calls)
     electrons    :    989.30s CPU   1005.25s WALL (      11 calls)
     update_pot   :      0.68s CPU      0.77s WALL (      10 calls)
     forces       :      6.62s CPU      6.66s WALL (      11 calls)
     stress       :    101.00s CPU    101.14s WALL (      11 calls)

     Called by init_run:
     wfcinit      :      4.27s CPU      4.35s WALL (       1 calls)
     potinit      :      1.59s CPU      1.62s WALL (       1 calls)
     hinit0       :      0.34s CPU      0.34s WALL (       1 calls)

     Called by electrons:
     c_bands      :    879.29s CPU    892.56s WALL (      89 calls)
     sum_band     :    103.84s CPU    104.83s WALL (      89 calls)
     v_of_rho     :      7.79s CPU      8.51s WALL (      96 calls)
     newd         :      0.21s CPU      0.27s WALL (      96 calls)
     mix_rho      :      0.18s CPU      0.18s WALL (      89 calls)
     vdW_kernel   :      1.51s CPU      1.51s WALL (       1 calls)

     Called by c_bands:
     init_us_2    :     12.80s CPU     13.26s WALL (   23115 calls)
     cegterg      :    845.04s CPU    852.36s WALL (   10235 calls)

     Called by *egterg:
     cdiaghg      :     69.68s CPU     69.98s WALL (   40021 calls)
     h_psi        :    636.65s CPU    643.14s WALL (   41746 calls)
     s_psi        :     26.75s CPU     26.92s WALL (   41746 calls)
     g_psi        :      2.27s CPU      2.28s WALL (   31396 calls)

     Called by h_psi:
     h_psi:calbec :     44.13s CPU     44.51s WALL (   41746 calls)
     vloc_psi     :    559.48s CPU    565.27s WALL (   41746 calls)
     add_vuspsi   :     28.23s CPU     28.44s WALL (   41746 calls)

     General routines
     calbec       :     58.89s CPU     59.42s WALL (   58306 calls)
     fft          :      3.81s CPU      3.88s WALL (    6442 calls)
     ffts         :      0.05s CPU      0.05s WALL (      89 calls)
     fftw         :    586.20s CPU    592.05s WALL ( 2418408 calls)

     Parallel routines

     PWSCF        :  18m27.96s CPU  18m54.87s WALL


   This run was terminated on:   1: 9:52   2Apr2026            

=------------------------------------------------------------------------------=
   JOB DONE.
=------------------------------------------------------------------------------=
