
     Program PWSCF v.7.3.1 starts on 26Mar2026 at 17:39:44 

     This program is part of the open-source Quantum ESPRESSO suite
     for quantum simulation of materials; please cite
         "P. Giannozzi et al., J. Phys.:Condens. Matter 21 395502 (2009);
         "P. Giannozzi et al., J. Phys.:Condens. Matter 29 465901 (2017);
         "P. Giannozzi et al., J. Chem. Phys. 152 154105 (2020);
          URL http://www.quantum-espresso.org", 
     in publications or presentations arising from this work. More details at
     http://www.quantum-espresso.org/quote

     Parallel version (MPI), running on   128 processors

     MPI processes distributed on     1 nodes
     236548 MiB available memory on the printing compute node when the environment starts

     Waiting for input...
     Reading input from standard input

     Current dimensions of program PWSCF are:
     Max number of different atomic species (ntypx) = 10
     Max number of k-points (npk) =  40000
     Max angular momentum in pseudopotentials (lmaxx) =  4

     IMPORTANT: XC functional enforced from input :
     Exchange-correlation= VDW-DF2
                           (   1   4  13   0   2   0   0)
     Any further DFT definition will be discarded
     Please, verify this is what you really want

     Found identity + ( -0.5000 -0.5000 -0.0000) symmetry
     This is a supercell, fractional translations are disabled

     K-points division:     npool     =       4
     R & G space division:  proc/nbgrp/npool/nimage =      32
     Subspace diagonalization in iterative solution of the eigenvalue problem:
     a serial algorithm will be used


     Parallelization info
     --------------------
     sticks:   dense  smooth     PW     G-vecs:    dense   smooth      PW
     Min         113     113     31                 6439     6439     929
     Max         114     114     32                 6448     6448     934
     Sum        3647    3647   1017               206243   206243   29785

     Using Slab Decomposition



     bravais-lattice index     =            8
     lattice parameter (alat)  =       8.5926  a.u.
     unit-cell volume          =    1788.6889 (a.u.)^3
     number of atoms/cell      =           24
     number of atomic types    =            2
     number of electrons       =        64.00
     number of Kohn-Sham states=           32
     kinetic-energy cutoff     =      90.0000  Ry
     charge density cutoff     =     360.0000  Ry
     scf convergence threshold =      1.0E-07
     mixing beta               =       0.7000
     number of iterations used =            8  plain     mixing
     Exchange-correlation= VDW-DF2
                           (   1   4  13   0   2   0   0)

     celldm(1)=   8.592622  celldm(2)=   1.732119  celldm(3)=   1.627721
     celldm(4)=   0.000000  celldm(5)=   0.000000  celldm(6)=   0.000000

     crystal axes: (cart. coord. in units of alat)
               a(1) = (   1.000000   0.000000   0.000000 )  
               a(2) = (   0.000000   1.732119   0.000000 )  
               a(3) = (   0.000000   0.000000   1.627721 )  

     reciprocal axes: (cart. coord. in units 2 pi/alat)
               b(1) = (  1.000000  0.000000  0.000000 )  
               b(2) = (  0.000000  0.577328  0.000000 )  
               b(3) = (  0.000000  0.000000  0.614356 )  


     PseudoPot. # 1 for H  read from file:
     ./H.pbe-van_ak.UPF
     MD5 check sum: 077eb6d537518a38cb46c6de387227b7
     Pseudo is Ultrasoft, Zval =  1.0
     Generated by new atomic code, or converted to UPF format
     Using radial grid of  615 points,  1 beta functions with: 
                l(1) =   0
     Q(r) pseudized with  8 coefficients,  rinner =    0.800

     PseudoPot. # 2 for O  read from file:
     ./O.pbe-van_ak.UPF
     MD5 check sum: 78c19812648e8988a0fe644b0f25305e
     Pseudo is Ultrasoft, Zval =  6.0
     Generated by new atomic code, or converted to UPF format
     Using radial grid of  737 points,  4 beta functions with: 
                l(1) =   0
                l(2) =   0
                l(3) =   1
                l(4) =   1
     Q(r) pseudized with  8 coefficients,  rinner =    0.800   0.800   0.800


     atomic species   valence    mass     pseudopotential
     H                 1.00     1.00800     H ( 1.00)
     O                 6.00    16.00000     O ( 1.00)

      2 Sym. Ops. (no inversion) found



   Cartesian axes

     site n.     atom                  positions (alat units)
         1        O      tau(   1) = (   0.0000000   1.1505053   0.0983911  )
         2        O      tau(   2) = (   0.0000000   0.5816137   0.9122516  )
         3        O      tau(   3) = (   0.5000000   0.2844458   0.0983911  )
         4        O      tau(   4) = (   0.5000000   1.4476733   0.9122516  )
         5        O      tau(   5) = (   0.5000000   1.4413210   1.5245781  )
         6        O      tau(   6) = (   0.5000000   0.2907980   0.7107175  )
         7        O      tau(   7) = (   0.0000000   0.5752615   1.5245780  )
         8        O      tau(   8) = (   0.0000000   1.1568575   0.7107175  )
         9        H      tau(   9) = (   0.0000000   1.1476935   0.3199225  )
        10        H      tau(  10) = (   0.0000000   0.5844255   1.1337830  )
        11        H      tau(  11) = (   0.5000000   0.2816340   0.3199225  )
        12        H      tau(  12) = (   0.5000000   1.4504851   1.1337830  )
        13        H      tau(  13) = (   0.0000000   0.9389577   0.0320281  )
        14        H      tau(  14) = (   0.0000000   0.7931613   0.8458886  )
        15        H      tau(  15) = (   0.5000000   0.0728982   0.0320281  )
        16        H      tau(  16) = (   0.5000000   1.6592209   0.8458886  )
        17        H      tau(  17) = (   0.6777387   1.3318248   1.5989889  )
        18        H      tau(  18) = (   0.3222613   0.4002942   0.7851284  )
        19        H      tau(  19) = (   0.6777387   0.4002942   0.7851284  )
        20        H      tau(  20) = (   0.3222613   1.3318248   1.5989889  )
        21        H      tau(  21) = (   0.1777387   0.4657653   1.5989889  )
        22        H      tau(  22) = (   0.8222613   1.2663538   0.7851284  )
        23        H      tau(  23) = (   0.1777387   1.2663538   0.7851284  )
        24        H      tau(  24) = (   0.8222613   0.4657653   1.5989889  )

     number of k points=   460

     Number of k-points >= 100: set verbosity='high' to print them.

     Dense  grid:   206243 G-vectors     FFT dimensions: (  54,  90,  90)

     Estimated max dynamical RAM per process >      53.91 MB

     Estimated total dynamical RAM >       6.59 GB

     Initial potential from superposition of free atoms

     starting charge      63.9998, renormalised to      64.0000


     %%%%%%%%%%%%%%%%%%%%%%%%%%%%%%%%%%%%%%%%%%%%%%%%%%%%%%%%%%%%%%%%%%%%%%%%
     %                                                                      %
     % You are using vdW-DF, which was implemented by the Thonhauser group. %
     % Please cite the following two papers that made this development      %
     % possible and the two reviews that describe the various versions:     %
     %                                                                      %
     %   T. Thonhauser et al., PRL 115, 136402 (2015).                      %
     %   T. Thonhauser et al., PRB 76, 125112 (2007).                       %
     %   K. Berland et al., Rep. Prog. Phys. 78, 066501 (2015).             %
     %   D.C. Langreth et al., J. Phys.: Condens. Matter 21, 084203 (2009). %
     %                                                                      %
     % If you are calculating stress with vdW-DF, please also cite:         %
     %                                                                      %
     %   R. Sabatini et al., J. Phys.: Condens. Matter 24, 424209 (2012).   %
     %                                                                      %
     %%%%%%%%%%%%%%%%%%%%%%%%%%%%%%%%%%%%%%%%%%%%%%%%%%%%%%%%%%%%%%%%%%%%%%%%

     %%%%%%%%%%%%%%%%%%%%%%%%%%%%%%%%%%%%%%%%%%%%%%%%%%%%%%%%%%%%%%%%%%%%%%%%
     %                                                                      %
     %  vdW-DF NEWS:                                                        %
     %                                                                      %
     %  * vdW-DF3 is now available. DOI: 10.1021/acs.jctc.0c00471           %
     %    use with input_dft = 'vdW-DF3-opt1' or 'vdW-DF3-opt2'             %
     %                                                                      %
     %  * Unscreened and range-separated hybrid vdW-DF-cx functionals       %
     %    DOI: 10.1063/1.4986522 and 10.1088/1361-648X/ac2ad2               %
     %    use with input_dft = 'vdW-DF-cx0'    and 'vdW-DF-ahcx'            %
     %  * Unscreened and range-separated hybrid vdW-DF2-b86r functionals    %
     %    DOI: 10.1063/1.4986522 and DOI: 10.1103/PhysRevX.12.041003        %
     %    use with input_dft = 'vdW-DF2-br0' and 'vdW-DF2-ahbr'             %
     %                                                                      %
     %%%%%%%%%%%%%%%%%%%%%%%%%%%%%%%%%%%%%%%%%%%%%%%%%%%%%%%%%%%%%%%%%%%%%%%%


     Starting wfcs are   48 randomized atomic wfcs

     total cpu time spent up to now is        6.6 secs

     per-process dynamical memory:    61.1 Mb

     Self-consistent Calculation

     iteration #  1     ecut=    90.00 Ry     beta= 0.70
     Davidson diagonalization with overlap
     ethr =  1.00E-02,  avg # of iterations =  2.0

     total cpu time spent up to now is       16.1 secs

     total energy              =    -277.30683189 Ry
     estimated scf accuracy    <       3.13049948 Ry

     iteration #  2     ecut=    90.00 Ry     beta= 0.70
     Davidson diagonalization with overlap
     ethr =  4.89E-03,  avg # of iterations =  3.0

     total cpu time spent up to now is       28.8 secs

     total energy              =    -278.31532015 Ry
     estimated scf accuracy    <       2.32216096 Ry

     iteration #  3     ecut=    90.00 Ry     beta= 0.70
     Davidson diagonalization with overlap
     ethr =  3.63E-03,  avg # of iterations =  2.0

     total cpu time spent up to now is       38.4 secs

     total energy              =    -278.62936770 Ry
     estimated scf accuracy    <       0.09808136 Ry

     iteration #  4     ecut=    90.00 Ry     beta= 0.70
     Davidson diagonalization with overlap
     ethr =  1.53E-04,  avg # of iterations =  4.0

     total cpu time spent up to now is       52.9 secs

     total energy              =    -278.70581449 Ry
     estimated scf accuracy    <       0.12292535 Ry

     iteration #  5     ecut=    90.00 Ry     beta= 0.70
     Davidson diagonalization with overlap
     ethr =  1.53E-04,  avg # of iterations =  2.0

     total cpu time spent up to now is       61.0 secs

     total energy              =    -278.70692538 Ry
     estimated scf accuracy    <       0.01869953 Ry

     iteration #  6     ecut=    90.00 Ry     beta= 0.70
     Davidson diagonalization with overlap
     ethr =  2.92E-05,  avg # of iterations =  2.0

     total cpu time spent up to now is       71.0 secs

     total energy              =    -278.71138908 Ry
     estimated scf accuracy    <       0.00049128 Ry

     iteration #  7     ecut=    90.00 Ry     beta= 0.70
     Davidson diagonalization with overlap
     ethr =  7.68E-07,  avg # of iterations =  4.7

     total cpu time spent up to now is       84.6 secs

     total energy              =    -278.71263120 Ry
     estimated scf accuracy    <       0.00095165 Ry

     iteration #  8     ecut=    90.00 Ry     beta= 0.70
     Davidson diagonalization with overlap
     ethr =  7.68E-07,  avg # of iterations =  2.0

     total cpu time spent up to now is       94.9 secs

     total energy              =    -278.71180673 Ry
     estimated scf accuracy    <       0.00278562 Ry

     iteration #  9     ecut=    90.00 Ry     beta= 0.70
     Davidson diagonalization with overlap
     ethr =  7.68E-07,  avg # of iterations =  2.0

     total cpu time spent up to now is      105.1 secs

     total energy              =    -278.71183869 Ry
     estimated scf accuracy    <       0.00067948 Ry

     iteration # 10     ecut=    90.00 Ry     beta= 0.70
     Davidson diagonalization with overlap
     ethr =  7.68E-07,  avg # of iterations =  1.0

     total cpu time spent up to now is      112.1 secs

     total energy              =    -278.71187360 Ry
     estimated scf accuracy    <       0.00028480 Ry

     iteration # 11     ecut=    90.00 Ry     beta= 0.70
     Davidson diagonalization with overlap
     ethr =  4.45E-07,  avg # of iterations =  1.0

     total cpu time spent up to now is      119.2 secs

     total energy              =    -278.71175284 Ry
     estimated scf accuracy    <       0.00030058 Ry

     iteration # 12     ecut=    90.00 Ry     beta= 0.70
     Davidson diagonalization with overlap
     ethr =  4.45E-07,  avg # of iterations =  2.0

     total cpu time spent up to now is      128.8 secs

     total energy              =    -278.71181340 Ry
     estimated scf accuracy    <       0.00000897 Ry

     iteration # 13     ecut=    90.00 Ry     beta= 0.70
     Davidson diagonalization with overlap
     ethr =  1.40E-08,  avg # of iterations =  4.0

     total cpu time spent up to now is      143.3 secs

     total energy              =    -278.71182317 Ry
     estimated scf accuracy    <       0.00001060 Ry

     iteration # 14     ecut=    90.00 Ry     beta= 0.70
     Davidson diagonalization with overlap
     ethr =  1.40E-08,  avg # of iterations =  1.0

     total cpu time spent up to now is      150.4 secs

     total energy              =    -278.71182376 Ry
     estimated scf accuracy    <       0.00000621 Ry

     iteration # 15     ecut=    90.00 Ry     beta= 0.70
     Davidson diagonalization with overlap
     ethr =  9.71E-09,  avg # of iterations =  1.0

     total cpu time spent up to now is      157.4 secs

     total energy              =    -278.71182180 Ry
     estimated scf accuracy    <       0.00000731 Ry

     iteration # 16     ecut=    90.00 Ry     beta= 0.70
     Davidson diagonalization with overlap
     ethr =  9.71E-09,  avg # of iterations =  1.0

     total cpu time spent up to now is      164.4 secs

     total energy              =    -278.71182149 Ry
     estimated scf accuracy    <       0.00000185 Ry

     iteration # 17     ecut=    90.00 Ry     beta= 0.70
     Davidson diagonalization with overlap
     ethr =  2.89E-09,  avg # of iterations =  2.0

     total cpu time spent up to now is      174.6 secs

     total energy              =    -278.71182213 Ry
     estimated scf accuracy    <       0.00000146 Ry

     iteration # 18     ecut=    90.00 Ry     beta= 0.70
     Davidson diagonalization with overlap
     ethr =  2.29E-09,  avg # of iterations =  1.0

     total cpu time spent up to now is      181.7 secs

     total energy              =    -278.71182171 Ry
     estimated scf accuracy    <       0.00000100 Ry

     iteration # 19     ecut=    90.00 Ry     beta= 0.70
     Davidson diagonalization with overlap
     ethr =  1.57E-09,  avg # of iterations =  2.0

     total cpu time spent up to now is      192.0 secs

     total energy              =    -278.71182192 Ry
     estimated scf accuracy    <       0.00000023 Ry

     iteration # 20     ecut=    90.00 Ry     beta= 0.70
     Davidson diagonalization with overlap
     ethr =  3.61E-10,  avg # of iterations =  1.0

     total cpu time spent up to now is      199.0 secs

     End of self-consistent calculation

     Number of k-points >= 100: set verbosity='high' to print the bands.

     highest occupied level (ev):    -4.0058

!    total energy              =    -278.71182190 Ry
     estimated scf accuracy    <       0.00000006 Ry

     The total energy is the sum of the following terms:
     one-electron contribution =    -240.47546242 Ry
     hartree contribution      =     140.82054058 Ry
     xc contribution           =     -70.41054608 Ry
     ewald contribution        =    -108.64635398 Ry

     convergence has been achieved in  20 iterations

     Forces acting on atoms (cartesian axes, Ry/au):

     atom    1 type  2   force =     0.00000000   -0.01249515    0.00930158
     atom    2 type  2   force =     0.00000000    0.01249505    0.00930168
     atom    3 type  2   force =     0.00000000   -0.01249509    0.00930157
     atom    4 type  2   force =     0.00000000    0.01249507    0.00930157
     atom    5 type  2   force =     0.00000000   -0.01348133    0.00828307
     atom    6 type  2   force =     0.00000000    0.01348136    0.00828314
     atom    7 type  2   force =     0.00000000   -0.01348155    0.00828321
     atom    8 type  2   force =     0.00000000    0.01348152    0.00828317
     atom    9 type  1   force =     0.00000000   -0.00021023   -0.01445254
     atom   10 type  1   force =     0.00000000    0.00021024   -0.01445257
     atom   11 type  1   force =     0.00000000   -0.00021023   -0.01445262
     atom   12 type  1   force =     0.00000000    0.00021023   -0.01445275
     atom   13 type  1   force =     0.00000000    0.01354129    0.00523974
     atom   14 type  1   force =     0.00000000   -0.01354122    0.00523972
     atom   15 type  1   force =     0.00000000    0.01354135    0.00523975
     atom   16 type  1   force =     0.00000000   -0.01354142    0.00523978
     atom   17 type  1   force =    -0.01226726    0.00615779   -0.00418594
     atom   18 type  1   force =     0.01226728   -0.00615779   -0.00418594
     atom   19 type  1   force =    -0.01226728   -0.00615779   -0.00418594
     atom   20 type  1   force =     0.01226726    0.00615779   -0.00418594
     atom   21 type  1   force =    -0.01226731    0.00615781   -0.00418595
     atom   22 type  1   force =     0.01226726   -0.00615776   -0.00418592
     atom   23 type  1   force =    -0.01226726   -0.00615776   -0.00418592
     atom   24 type  1   force =     0.01226731    0.00615781   -0.00418595

     Total force =     0.072790     Total SCF correction =     0.000118


     Computing stress (Cartesian axis) and pressure

          total   stress  (Ry/bohr**3)                   (kbar)     P=      -16.00
  -0.00011550   0.00000000   0.00000000          -16.99        0.00        0.00
   0.00000000  -0.00010253  -0.00000000            0.00      -15.08       -0.00
   0.00000000  -0.00000000  -0.00010836            0.00       -0.00      -15.94


     Writing all to output data dir ./iceIh/iceIh.save/ :
     XML data file, charge density, pseudopotentials, collected wavefunctions

     init_run     :      6.29s CPU      6.38s WALL (       1 calls)
     electrons    :    189.71s CPU    192.47s WALL (       1 calls)
     forces       :      0.60s CPU      0.62s WALL (       1 calls)
     stress       :      9.25s CPU      9.27s WALL (       1 calls)

     Called by init_run:
     wfcinit      :      4.28s CPU      4.31s WALL (       1 calls)
     potinit      :      1.58s CPU      1.63s WALL (       1 calls)
     hinit0       :      0.34s CPU      0.34s WALL (       1 calls)

     Called by electrons:
     c_bands      :    164.90s CPU    167.17s WALL (      20 calls)
     sum_band     :     23.33s CPU     23.54s WALL (      20 calls)
     v_of_rho     :      2.88s CPU      3.07s WALL (      21 calls)
     newd         :      0.07s CPU      0.08s WALL (      21 calls)
     mix_rho      :      0.06s CPU      0.07s WALL (      20 calls)
     vdW_kernel   :      1.50s CPU      1.52s WALL (       1 calls)

     Called by c_bands:
     init_us_2    :      2.96s CPU      3.06s WALL (    4945 calls)
     cegterg      :    158.99s CPU    160.41s WALL (    2300 calls)

     Called by *egterg:
     cdiaghg      :     11.80s CPU     11.85s WALL (    6984 calls)
     h_psi        :    125.99s CPU    127.28s WALL (    7099 calls)
     s_psi        :      5.00s CPU      5.03s WALL (    7099 calls)
     g_psi        :      0.44s CPU      0.44s WALL (    4684 calls)

     Called by h_psi:
     h_psi:calbec :      7.99s CPU      8.07s WALL (    7099 calls)
     vloc_psi     :    111.66s CPU    112.81s WALL (    7099 calls)
     add_vuspsi   :      5.28s CPU      5.33s WALL (    7099 calls)

     General routines
     calbec       :     10.53s CPU     10.63s WALL (    9974 calls)
     fft          :      1.05s CPU      1.07s WALL (    1333 calls)
     ffts         :      0.01s CPU      0.01s WALL (      20 calls)
     fftw         :    119.14s CPU    120.29s WALL (  492022 calls)

     Parallel routines

     PWSCF        :   3m28.73s CPU   3m37.10s WALL


   This run was terminated on:  17:43:21  26Mar2026            

=------------------------------------------------------------------------------=
   JOB DONE.
=------------------------------------------------------------------------------=
