
     Program PWSCF v.7.3.1 starts on 26Mar2026 at 17:47:16 

     This program is part of the open-source Quantum ESPRESSO suite
     for quantum simulation of materials; please cite
         "P. Giannozzi et al., J. Phys.:Condens. Matter 21 395502 (2009);
         "P. Giannozzi et al., J. Phys.:Condens. Matter 29 465901 (2017);
         "P. Giannozzi et al., J. Chem. Phys. 152 154105 (2020);
          URL http://www.quantum-espresso.org", 
     in publications or presentations arising from this work. More details at
     http://www.quantum-espresso.org/quote

     Parallel version (MPI), running on   128 processors

     MPI processes distributed on     1 nodes
     236438 MiB available memory on the printing compute node when the environment starts

     Waiting for input...
     Reading input from standard input

     Current dimensions of program PWSCF are:
     Max number of different atomic species (ntypx) = 10
     Max number of k-points (npk) =  40000
     Max angular momentum in pseudopotentials (lmaxx) =  4

     IMPORTANT: XC functional enforced from input :
     Exchange-correlation= VDW-DF2
                           (   1   4  13   0   2   0   0)
     Any further DFT definition will be discarded
     Please, verify this is what you really want

     Found identity + ( -0.5000 -0.5000 -0.0000) symmetry
     This is a supercell, fractional translations are disabled

     K-points division:     npool     =       4
     R & G space division:  proc/nbgrp/npool/nimage =      32
     Subspace diagonalization in iterative solution of the eigenvalue problem:
     a serial algorithm will be used


     Parallelization info
     --------------------
     sticks:   dense  smooth     PW     G-vecs:    dense   smooth      PW
     Min         115     115     32                 6519     6519     942
     Max         116     116     33                 6522     6522     945
     Sum        3687    3687   1025               208623   208623   30205

     Using Slab Decomposition



     bravais-lattice index     =            8
     lattice parameter (alat)  =       8.6267  a.u.
     unit-cell volume          =    1810.0249 (a.u.)^3
     number of atoms/cell      =           24
     number of atomic types    =            2
     number of electrons       =        64.00
     number of Kohn-Sham states=           32
     kinetic-energy cutoff     =      90.0000  Ry
     charge density cutoff     =     360.0000  Ry
     scf convergence threshold =      1.0E-07
     mixing beta               =       0.7000
     number of iterations used =            8  plain     mixing
     Exchange-correlation= VDW-DF2
                           (   1   4  13   0   2   0   0)

     celldm(1)=   8.626652  celldm(2)=   1.732119  celldm(3)=   1.627721
     celldm(4)=   0.000000  celldm(5)=   0.000000  celldm(6)=   0.000000

     crystal axes: (cart. coord. in units of alat)
               a(1) = (   1.000000   0.000000   0.000000 )  
               a(2) = (   0.000000   1.732119   0.000000 )  
               a(3) = (   0.000000   0.000000   1.627721 )  

     reciprocal axes: (cart. coord. in units 2 pi/alat)
               b(1) = (  1.000000  0.000000  0.000000 )  
               b(2) = (  0.000000  0.577328  0.000000 )  
               b(3) = (  0.000000  0.000000  0.614356 )  


     PseudoPot. # 1 for H  read from file:
     ./H.pbe-van_ak.UPF
     MD5 check sum: 077eb6d537518a38cb46c6de387227b7
     Pseudo is Ultrasoft, Zval =  1.0
     Generated by new atomic code, or converted to UPF format
     Using radial grid of  615 points,  1 beta functions with: 
                l(1) =   0
     Q(r) pseudized with  8 coefficients,  rinner =    0.800

     PseudoPot. # 2 for O  read from file:
     ./O.pbe-van_ak.UPF
     MD5 check sum: 78c19812648e8988a0fe644b0f25305e
     Pseudo is Ultrasoft, Zval =  6.0
     Generated by new atomic code, or converted to UPF format
     Using radial grid of  737 points,  4 beta functions with: 
                l(1) =   0
                l(2) =   0
                l(3) =   1
                l(4) =   1
     Q(r) pseudized with  8 coefficients,  rinner =    0.800   0.800   0.800


     atomic species   valence    mass     pseudopotential
     H                 1.00     1.00800     H ( 1.00)
     O                 6.00    16.00000     O ( 1.00)

      2 Sym. Ops. (no inversion) found



   Cartesian axes

     site n.     atom                  positions (alat units)
         1        O      tau(   1) = (   0.0000000   1.1505053   0.0983911  )
         2        O      tau(   2) = (   0.0000000   0.5816137   0.9122516  )
         3        O      tau(   3) = (   0.5000000   0.2844458   0.0983911  )
         4        O      tau(   4) = (   0.5000000   1.4476733   0.9122516  )
         5        O      tau(   5) = (   0.5000000   1.4413210   1.5245781  )
         6        O      tau(   6) = (   0.5000000   0.2907980   0.7107175  )
         7        O      tau(   7) = (   0.0000000   0.5752615   1.5245780  )
         8        O      tau(   8) = (   0.0000000   1.1568575   0.7107175  )
         9        H      tau(   9) = (   0.0000000   1.1476935   0.3199225  )
        10        H      tau(  10) = (   0.0000000   0.5844255   1.1337830  )
        11        H      tau(  11) = (   0.5000000   0.2816340   0.3199225  )
        12        H      tau(  12) = (   0.5000000   1.4504851   1.1337830  )
        13        H      tau(  13) = (   0.0000000   0.9389577   0.0320281  )
        14        H      tau(  14) = (   0.0000000   0.7931613   0.8458886  )
        15        H      tau(  15) = (   0.5000000   0.0728982   0.0320281  )
        16        H      tau(  16) = (   0.5000000   1.6592209   0.8458886  )
        17        H      tau(  17) = (   0.6777387   1.3318248   1.5989889  )
        18        H      tau(  18) = (   0.3222613   0.4002942   0.7851284  )
        19        H      tau(  19) = (   0.6777387   0.4002942   0.7851284  )
        20        H      tau(  20) = (   0.3222613   1.3318248   1.5989889  )
        21        H      tau(  21) = (   0.1777387   0.4657653   1.5989889  )
        22        H      tau(  22) = (   0.8222613   1.2663538   0.7851284  )
        23        H      tau(  23) = (   0.1777387   1.2663538   0.7851284  )
        24        H      tau(  24) = (   0.8222613   0.4657653   1.5989889  )

     number of k points=   460

     Number of k-points >= 100: set verbosity='high' to print them.

     Dense  grid:   208623 G-vectors     FFT dimensions: (  54,  96,  90)

     Estimated max dynamical RAM per process >      54.62 MB

     Estimated total dynamical RAM >       6.68 GB

     Initial potential from superposition of free atoms

     starting charge      63.9998, renormalised to      64.0000


     %%%%%%%%%%%%%%%%%%%%%%%%%%%%%%%%%%%%%%%%%%%%%%%%%%%%%%%%%%%%%%%%%%%%%%%%
     %                                                                      %
     % You are using vdW-DF, which was implemented by the Thonhauser group. %
     % Please cite the following two papers that made this development      %
     % possible and the two reviews that describe the various versions:     %
     %                                                                      %
     %   T. Thonhauser et al., PRL 115, 136402 (2015).                      %
     %   T. Thonhauser et al., PRB 76, 125112 (2007).                       %
     %   K. Berland et al., Rep. Prog. Phys. 78, 066501 (2015).             %
     %   D.C. Langreth et al., J. Phys.: Condens. Matter 21, 084203 (2009). %
     %                                                                      %
     % If you are calculating stress with vdW-DF, please also cite:         %
     %                                                                      %
     %   R. Sabatini et al., J. Phys.: Condens. Matter 24, 424209 (2012).   %
     %                                                                      %
     %%%%%%%%%%%%%%%%%%%%%%%%%%%%%%%%%%%%%%%%%%%%%%%%%%%%%%%%%%%%%%%%%%%%%%%%

     %%%%%%%%%%%%%%%%%%%%%%%%%%%%%%%%%%%%%%%%%%%%%%%%%%%%%%%%%%%%%%%%%%%%%%%%
     %                                                                      %
     %  vdW-DF NEWS:                                                        %
     %                                                                      %
     %  * vdW-DF3 is now available. DOI: 10.1021/acs.jctc.0c00471           %
     %    use with input_dft = 'vdW-DF3-opt1' or 'vdW-DF3-opt2'             %
     %                                                                      %
     %  * Unscreened and range-separated hybrid vdW-DF-cx functionals       %
     %    DOI: 10.1063/1.4986522 and 10.1088/1361-648X/ac2ad2               %
     %    use with input_dft = 'vdW-DF-cx0'    and 'vdW-DF-ahcx'            %
     %  * Unscreened and range-separated hybrid vdW-DF2-b86r functionals    %
     %    DOI: 10.1063/1.4986522 and DOI: 10.1103/PhysRevX.12.041003        %
     %    use with input_dft = 'vdW-DF2-br0' and 'vdW-DF2-ahbr'             %
     %                                                                      %
     %%%%%%%%%%%%%%%%%%%%%%%%%%%%%%%%%%%%%%%%%%%%%%%%%%%%%%%%%%%%%%%%%%%%%%%%


     Starting wfcs are   48 randomized atomic wfcs

     total cpu time spent up to now is        6.8 secs

     per-process dynamical memory:    62.0 Mb

     Self-consistent Calculation

     iteration #  1     ecut=    90.00 Ry     beta= 0.70
     Davidson diagonalization with overlap
     ethr =  1.00E-02,  avg # of iterations =  2.0

     total cpu time spent up to now is       16.4 secs

     total energy              =    -277.30721011 Ry
     estimated scf accuracy    <       3.11416435 Ry

     iteration #  2     ecut=    90.00 Ry     beta= 0.70
     Davidson diagonalization with overlap
     ethr =  4.87E-03,  avg # of iterations =  3.0

     total cpu time spent up to now is       29.2 secs

     total energy              =    -278.30968633 Ry
     estimated scf accuracy    <       2.34555388 Ry

     iteration #  3     ecut=    90.00 Ry     beta= 0.70
     Davidson diagonalization with overlap
     ethr =  3.66E-03,  avg # of iterations =  2.0

     total cpu time spent up to now is       39.0 secs

     total energy              =    -278.62526414 Ry
     estimated scf accuracy    <       0.10034627 Ry

     iteration #  4     ecut=    90.00 Ry     beta= 0.70
     Davidson diagonalization with overlap
     ethr =  1.57E-04,  avg # of iterations =  4.0

     negative rho (up, down):  2.493E-07 0.000E+00

     total cpu time spent up to now is       53.7 secs

     total energy              =    -278.70347092 Ry
     estimated scf accuracy    <       0.12442774 Ry

     iteration #  5     ecut=    90.00 Ry     beta= 0.70
     Davidson diagonalization with overlap
     ethr =  1.57E-04,  avg # of iterations =  2.0

     negative rho (up, down):  4.756E-07 0.000E+00

     total cpu time spent up to now is       61.9 secs

     total energy              =    -278.70472162 Ry
     estimated scf accuracy    <       0.01930238 Ry

     iteration #  6     ecut=    90.00 Ry     beta= 0.70
     Davidson diagonalization with overlap
     ethr =  3.02E-05,  avg # of iterations =  2.0

     negative rho (up, down):  5.778E-07 0.000E+00

     total cpu time spent up to now is       71.9 secs

     total energy              =    -278.70892491 Ry
     estimated scf accuracy    <       0.00076118 Ry

     iteration #  7     ecut=    90.00 Ry     beta= 0.70
     Davidson diagonalization with overlap
     ethr =  1.19E-06,  avg # of iterations =  3.9

     negative rho (up, down):  6.229E-07 0.000E+00

     total cpu time spent up to now is       84.4 secs

     total energy              =    -278.71008846 Ry
     estimated scf accuracy    <       0.00066936 Ry

     iteration #  8     ecut=    90.00 Ry     beta= 0.70
     Davidson diagonalization with overlap
     ethr =  1.05E-06,  avg # of iterations =  2.0

     negative rho (up, down):  5.108E-07 0.000E+00

     total cpu time spent up to now is       94.5 secs

     total energy              =    -278.70957419 Ry
     estimated scf accuracy    <       0.00224313 Ry

     iteration #  9     ecut=    90.00 Ry     beta= 0.70
     Davidson diagonalization with overlap
     ethr =  1.05E-06,  avg # of iterations =  2.0

     negative rho (up, down):  4.751E-07 0.000E+00

     total cpu time spent up to now is      102.7 secs

     total energy              =    -278.70948443 Ry
     estimated scf accuracy    <       0.00077665 Ry

     iteration # 10     ecut=    90.00 Ry     beta= 0.70
     Davidson diagonalization with overlap
     ethr =  1.05E-06,  avg # of iterations =  1.0

     negative rho (up, down):  4.629E-07 0.000E+00

     total cpu time spent up to now is      109.9 secs

     total energy              =    -278.70943006 Ry
     estimated scf accuracy    <       0.00031839 Ry

     iteration # 11     ecut=    90.00 Ry     beta= 0.70
     Davidson diagonalization with overlap
     ethr =  4.97E-07,  avg # of iterations =  2.0

     negative rho (up, down):  4.580E-07 0.000E+00

     total cpu time spent up to now is      118.9 secs

     total energy              =    -278.70945122 Ry
     estimated scf accuracy    <       0.00006675 Ry

     iteration # 12     ecut=    90.00 Ry     beta= 0.70
     Davidson diagonalization with overlap
     ethr =  1.04E-07,  avg # of iterations =  2.0

     negative rho (up, down):  4.555E-07 0.000E+00

     total cpu time spent up to now is      128.3 secs

     total energy              =    -278.70945799 Ry
     estimated scf accuracy    <       0.00001379 Ry

     iteration # 13     ecut=    90.00 Ry     beta= 0.70
     Davidson diagonalization with overlap
     ethr =  2.15E-08,  avg # of iterations =  3.0

     negative rho (up, down):  4.534E-07 0.000E+00

     total cpu time spent up to now is      139.5 secs

     total energy              =    -278.70946274 Ry
     estimated scf accuracy    <       0.00000034 Ry

     iteration # 14     ecut=    90.00 Ry     beta= 0.70
     Davidson diagonalization with overlap
     ethr =  5.29E-10,  avg # of iterations =  4.3

     negative rho (up, down):  4.526E-07 0.000E+00

     total cpu time spent up to now is      154.4 secs

     total energy              =    -278.70946348 Ry
     estimated scf accuracy    <       0.00000111 Ry

     iteration # 15     ecut=    90.00 Ry     beta= 0.70
     Davidson diagonalization with overlap
     ethr =  5.29E-10,  avg # of iterations =  2.0

     negative rho (up, down):  4.561E-07 0.000E+00

     total cpu time spent up to now is      164.0 secs

     total energy              =    -278.70946240 Ry
     estimated scf accuracy    <       0.00000223 Ry

     iteration # 16     ecut=    90.00 Ry     beta= 0.70
     Davidson diagonalization with overlap
     ethr =  5.29E-10,  avg # of iterations =  4.0

     negative rho (up, down):  4.561E-07 0.000E+00

     total cpu time spent up to now is      178.6 secs

     End of self-consistent calculation

     Number of k-points >= 100: set verbosity='high' to print the bands.

     highest occupied level (ev):    -4.0491

!    total energy              =    -278.70946290 Ry
     estimated scf accuracy    <       0.00000004 Ry

     The total energy is the sum of the following terms:
     one-electron contribution =    -241.27133622 Ry
     hartree contribution      =     141.12114931 Ry
     xc contribution           =     -70.34150723 Ry
     ewald contribution        =    -108.21776876 Ry

     convergence has been achieved in  16 iterations

     Forces acting on atoms (cartesian axes, Ry/au):

     atom    1 type  2   force =     0.00000000   -0.01734446    0.01270324
     atom    2 type  2   force =     0.00000000    0.01734437    0.01270334
     atom    3 type  2   force =     0.00000000   -0.01734458    0.01270331
     atom    4 type  2   force =     0.00000000    0.01734459    0.01270343
     atom    5 type  2   force =     0.00000000   -0.01835010    0.01172009
     atom    6 type  2   force =     0.00000000    0.01835025    0.01172022
     atom    7 type  2   force =     0.00000000   -0.01835040    0.01172031
     atom    8 type  2   force =     0.00000000    0.01835029    0.01172026
     atom    9 type  1   force =     0.00000000   -0.00043161   -0.01996724
     atom   10 type  1   force =     0.00000000    0.00043160   -0.01996732
     atom   11 type  1   force =     0.00000000   -0.00043162   -0.01996728
     atom   12 type  1   force =     0.00000000    0.00043162   -0.01996729
     atom   13 type  1   force =     0.00000000    0.01863211    0.00720104
     atom   14 type  1   force =     0.00000000   -0.01863208    0.00720102
     atom   15 type  1   force =     0.00000000    0.01863212    0.00720104
     atom   16 type  1   force =     0.00000000   -0.01863209    0.00720103
     atom   17 type  1   force =    -0.01690127    0.00862069   -0.00582866
     atom   18 type  1   force =     0.01690127   -0.00862069   -0.00582865
     atom   19 type  1   force =    -0.01690127   -0.00862069   -0.00582865
     atom   20 type  1   force =     0.01690127    0.00862069   -0.00582866
     atom   21 type  1   force =    -0.01690125    0.00862067   -0.00582865
     atom   22 type  1   force =     0.01690124   -0.00862067   -0.00582864
     atom   23 type  1   force =    -0.01690124   -0.00862067   -0.00582864
     atom   24 type  1   force =     0.01690125    0.00862067   -0.00582865

     Total force =     0.100441     Total SCF correction =     0.000113


     Computing stress (Cartesian axis) and pressure

          total   stress  (Ry/bohr**3)                   (kbar)     P=      -22.82
  -0.00016160   0.00000000   0.00000000          -23.77        0.00        0.00
   0.00000000  -0.00014946  -0.00000000            0.00      -21.99       -0.00
   0.00000000  -0.00000000  -0.00015432            0.00       -0.00      -22.70


     Writing all to output data dir ./iceIh/iceIh.save/ :
     XML data file, charge density, pseudopotentials, collected wavefunctions

     init_run     :      6.45s CPU      6.60s WALL (       1 calls)
     electrons    :    169.59s CPU    171.89s WALL (       1 calls)
     forces       :      0.66s CPU      0.68s WALL (       1 calls)
     stress       :      9.37s CPU      9.40s WALL (       1 calls)

     Called by init_run:
     wfcinit      :      4.30s CPU      4.37s WALL (       1 calls)
     potinit      :      1.58s CPU      1.63s WALL (       1 calls)
     hinit0       :      0.48s CPU      0.48s WALL (       1 calls)

     Called by electrons:
     c_bands      :    149.28s CPU    151.20s WALL (      16 calls)
     sum_band     :     19.03s CPU     19.19s WALL (      16 calls)
     v_of_rho     :      2.70s CPU      2.85s WALL (      17 calls)
     newd         :      0.06s CPU      0.07s WALL (      17 calls)
     mix_rho      :      0.05s CPU      0.05s WALL (      16 calls)
     vdW_kernel   :      1.50s CPU      1.52s WALL (       1 calls)

     Called by c_bands:
     init_us_2    :      2.37s CPU      2.44s WALL (    4025 calls)
     cegterg      :    143.53s CPU    144.69s WALL (    1840 calls)

     Called by *egterg:
     cdiaghg      :     11.03s CPU     11.08s WALL (    6596 calls)
     h_psi        :    112.47s CPU    113.54s WALL (    6711 calls)
     s_psi        :      4.44s CPU      4.47s WALL (    6711 calls)
     g_psi        :      0.40s CPU      0.41s WALL (    4756 calls)

     Called by h_psi:
     h_psi:calbec :      7.62s CPU      7.69s WALL (    6711 calls)
     vloc_psi     :     99.29s CPU    100.23s WALL (    6711 calls)
     add_vuspsi   :      4.66s CPU      4.70s WALL (    6711 calls)

     General routines
     calbec       :      9.75s CPU      9.84s WALL (    9126 calls)
     fft          :      1.06s CPU      1.08s WALL (    1089 calls)
     ffts         :      0.01s CPU      0.01s WALL (      16 calls)
     fftw         :    103.88s CPU    104.81s WALL (  423930 calls)

     Parallel routines

     PWSCF        :   3m 9.40s CPU   3m17.84s WALL


   This run was terminated on:  17:50:34  26Mar2026            

=------------------------------------------------------------------------------=
   JOB DONE.
=------------------------------------------------------------------------------=
