
     Program PWSCF v.7.3.1 starts on 26Mar2026 at 17:53:29 

     This program is part of the open-source Quantum ESPRESSO suite
     for quantum simulation of materials; please cite
         "P. Giannozzi et al., J. Phys.:Condens. Matter 21 395502 (2009);
         "P. Giannozzi et al., J. Phys.:Condens. Matter 29 465901 (2017);
         "P. Giannozzi et al., J. Chem. Phys. 152 154105 (2020);
          URL http://www.quantum-espresso.org", 
     in publications or presentations arising from this work. More details at
     http://www.quantum-espresso.org/quote

     Parallel version (MPI), running on   128 processors

     MPI processes distributed on     1 nodes
     236367 MiB available memory on the printing compute node when the environment starts

     Waiting for input...
     Reading input from standard input

     Current dimensions of program PWSCF are:
     Max number of different atomic species (ntypx) = 10
     Max number of k-points (npk) =  40000
     Max angular momentum in pseudopotentials (lmaxx) =  4

     IMPORTANT: XC functional enforced from input :
     Exchange-correlation= VDW-DF2
                           (   1   4  13   0   2   0   0)
     Any further DFT definition will be discarded
     Please, verify this is what you really want

     Found identity + ( -0.5000 -0.5000 -0.0000) symmetry
     This is a supercell, fractional translations are disabled

     K-points division:     npool     =       4
     R & G space division:  proc/nbgrp/npool/nimage =      32
     Subspace diagonalization in iterative solution of the eigenvalue problem:
     a serial algorithm will be used


     Parallelization info
     --------------------
     sticks:   dense  smooth     PW     G-vecs:    dense   smooth      PW
     Min         116     116     32                 6600     6600     954
     Max         117     117     33                 6605     6605     959
     Sum        3735    3735   1025               211267   211267   30597

     Using Slab Decomposition



     bravais-lattice index     =            8
     lattice parameter (alat)  =       8.6607  a.u.
     unit-cell volume          =    1831.5299 (a.u.)^3
     number of atoms/cell      =           24
     number of atomic types    =            2
     number of electrons       =        64.00
     number of Kohn-Sham states=           32
     kinetic-energy cutoff     =      90.0000  Ry
     charge density cutoff     =     360.0000  Ry
     scf convergence threshold =      1.0E-07
     mixing beta               =       0.7000
     number of iterations used =            8  plain     mixing
     Exchange-correlation= VDW-DF2
                           (   1   4  13   0   2   0   0)

     celldm(1)=   8.660682  celldm(2)=   1.732119  celldm(3)=   1.627721
     celldm(4)=   0.000000  celldm(5)=   0.000000  celldm(6)=   0.000000

     crystal axes: (cart. coord. in units of alat)
               a(1) = (   1.000000   0.000000   0.000000 )  
               a(2) = (   0.000000   1.732119   0.000000 )  
               a(3) = (   0.000000   0.000000   1.627721 )  

     reciprocal axes: (cart. coord. in units 2 pi/alat)
               b(1) = (  1.000000  0.000000  0.000000 )  
               b(2) = (  0.000000  0.577328  0.000000 )  
               b(3) = (  0.000000  0.000000  0.614356 )  


     PseudoPot. # 1 for H  read from file:
     ./H.pbe-van_ak.UPF
     MD5 check sum: 077eb6d537518a38cb46c6de387227b7
     Pseudo is Ultrasoft, Zval =  1.0
     Generated by new atomic code, or converted to UPF format
     Using radial grid of  615 points,  1 beta functions with: 
                l(1) =   0
     Q(r) pseudized with  8 coefficients,  rinner =    0.800

     PseudoPot. # 2 for O  read from file:
     ./O.pbe-van_ak.UPF
     MD5 check sum: 78c19812648e8988a0fe644b0f25305e
     Pseudo is Ultrasoft, Zval =  6.0
     Generated by new atomic code, or converted to UPF format
     Using radial grid of  737 points,  4 beta functions with: 
                l(1) =   0
                l(2) =   0
                l(3) =   1
                l(4) =   1
     Q(r) pseudized with  8 coefficients,  rinner =    0.800   0.800   0.800


     atomic species   valence    mass     pseudopotential
     H                 1.00     1.00800     H ( 1.00)
     O                 6.00    16.00000     O ( 1.00)

      2 Sym. Ops. (no inversion) found



   Cartesian axes

     site n.     atom                  positions (alat units)
         1        O      tau(   1) = (   0.0000000   1.1505053   0.0983911  )
         2        O      tau(   2) = (   0.0000000   0.5816137   0.9122516  )
         3        O      tau(   3) = (   0.5000000   0.2844458   0.0983911  )
         4        O      tau(   4) = (   0.5000000   1.4476733   0.9122516  )
         5        O      tau(   5) = (   0.5000000   1.4413210   1.5245781  )
         6        O      tau(   6) = (   0.5000000   0.2907980   0.7107175  )
         7        O      tau(   7) = (   0.0000000   0.5752615   1.5245780  )
         8        O      tau(   8) = (   0.0000000   1.1568575   0.7107175  )
         9        H      tau(   9) = (   0.0000000   1.1476935   0.3199225  )
        10        H      tau(  10) = (   0.0000000   0.5844255   1.1337830  )
        11        H      tau(  11) = (   0.5000000   0.2816340   0.3199225  )
        12        H      tau(  12) = (   0.5000000   1.4504851   1.1337830  )
        13        H      tau(  13) = (   0.0000000   0.9389577   0.0320281  )
        14        H      tau(  14) = (   0.0000000   0.7931613   0.8458886  )
        15        H      tau(  15) = (   0.5000000   0.0728982   0.0320281  )
        16        H      tau(  16) = (   0.5000000   1.6592209   0.8458886  )
        17        H      tau(  17) = (   0.6777387   1.3318248   1.5989889  )
        18        H      tau(  18) = (   0.3222613   0.4002942   0.7851284  )
        19        H      tau(  19) = (   0.6777387   0.4002942   0.7851284  )
        20        H      tau(  20) = (   0.3222613   1.3318248   1.5989889  )
        21        H      tau(  21) = (   0.1777387   0.4657653   1.5989889  )
        22        H      tau(  22) = (   0.8222613   1.2663538   0.7851284  )
        23        H      tau(  23) = (   0.1777387   1.2663538   0.7851284  )
        24        H      tau(  24) = (   0.8222613   0.4657653   1.5989889  )

     number of k points=   460

     Number of k-points >= 100: set verbosity='high' to print them.

     Dense  grid:   211267 G-vectors     FFT dimensions: (  54,  96,  90)

     Estimated max dynamical RAM per process >      55.26 MB

     Estimated total dynamical RAM >       6.76 GB

     Initial potential from superposition of free atoms

     starting charge      63.9998, renormalised to      64.0000


     %%%%%%%%%%%%%%%%%%%%%%%%%%%%%%%%%%%%%%%%%%%%%%%%%%%%%%%%%%%%%%%%%%%%%%%%
     %                                                                      %
     % You are using vdW-DF, which was implemented by the Thonhauser group. %
     % Please cite the following two papers that made this development      %
     % possible and the two reviews that describe the various versions:     %
     %                                                                      %
     %   T. Thonhauser et al., PRL 115, 136402 (2015).                      %
     %   T. Thonhauser et al., PRB 76, 125112 (2007).                       %
     %   K. Berland et al., Rep. Prog. Phys. 78, 066501 (2015).             %
     %   D.C. Langreth et al., J. Phys.: Condens. Matter 21, 084203 (2009). %
     %                                                                      %
     % If you are calculating stress with vdW-DF, please also cite:         %
     %                                                                      %
     %   R. Sabatini et al., J. Phys.: Condens. Matter 24, 424209 (2012).   %
     %                                                                      %
     %%%%%%%%%%%%%%%%%%%%%%%%%%%%%%%%%%%%%%%%%%%%%%%%%%%%%%%%%%%%%%%%%%%%%%%%

     %%%%%%%%%%%%%%%%%%%%%%%%%%%%%%%%%%%%%%%%%%%%%%%%%%%%%%%%%%%%%%%%%%%%%%%%
     %                                                                      %
     %  vdW-DF NEWS:                                                        %
     %                                                                      %
     %  * vdW-DF3 is now available. DOI: 10.1021/acs.jctc.0c00471           %
     %    use with input_dft = 'vdW-DF3-opt1' or 'vdW-DF3-opt2'             %
     %                                                                      %
     %  * Unscreened and range-separated hybrid vdW-DF-cx functionals       %
     %    DOI: 10.1063/1.4986522 and 10.1088/1361-648X/ac2ad2               %
     %    use with input_dft = 'vdW-DF-cx0'    and 'vdW-DF-ahcx'            %
     %  * Unscreened and range-separated hybrid vdW-DF2-b86r functionals    %
     %    DOI: 10.1063/1.4986522 and DOI: 10.1103/PhysRevX.12.041003        %
     %    use with input_dft = 'vdW-DF2-br0' and 'vdW-DF2-ahbr'             %
     %                                                                      %
     %%%%%%%%%%%%%%%%%%%%%%%%%%%%%%%%%%%%%%%%%%%%%%%%%%%%%%%%%%%%%%%%%%%%%%%%


     Starting wfcs are   48 randomized atomic wfcs

     total cpu time spent up to now is        7.0 secs

     per-process dynamical memory:    63.1 Mb

     Self-consistent Calculation

     iteration #  1     ecut=    90.00 Ry     beta= 0.70
     Davidson diagonalization with overlap
     ethr =  1.00E-02,  avg # of iterations =  2.0

     total cpu time spent up to now is       16.7 secs

     total energy              =    -277.30627636 Ry
     estimated scf accuracy    <       3.09844058 Ry

     iteration #  2     ecut=    90.00 Ry     beta= 0.70
     Davidson diagonalization with overlap
     ethr =  4.84E-03,  avg # of iterations =  3.0

     total cpu time spent up to now is       29.8 secs

     total energy              =    -278.30292771 Ry
     estimated scf accuracy    <       2.36925783 Ry

     iteration #  3     ecut=    90.00 Ry     beta= 0.70
     Davidson diagonalization with overlap
     ethr =  3.70E-03,  avg # of iterations =  2.0

     total cpu time spent up to now is       39.6 secs

     total energy              =    -278.62001615 Ry
     estimated scf accuracy    <       0.10267702 Ry

     iteration #  4     ecut=    90.00 Ry     beta= 0.70
     Davidson diagonalization with overlap
     ethr =  1.60E-04,  avg # of iterations =  4.0

     total cpu time spent up to now is       54.4 secs

     total energy              =    -278.70001976 Ry
     estimated scf accuracy    <       0.12588162 Ry

     iteration #  5     ecut=    90.00 Ry     beta= 0.70
     Davidson diagonalization with overlap
     ethr =  1.60E-04,  avg # of iterations =  2.0

     total cpu time spent up to now is       62.6 secs

     total energy              =    -278.70126090 Ry
     estimated scf accuracy    <       0.01986862 Ry

     iteration #  6     ecut=    90.00 Ry     beta= 0.70
     Davidson diagonalization with overlap
     ethr =  3.10E-05,  avg # of iterations =  2.0

     total cpu time spent up to now is       72.5 secs

     total energy              =    -278.70541037 Ry
     estimated scf accuracy    <       0.00090505 Ry

     iteration #  7     ecut=    90.00 Ry     beta= 0.70
     Davidson diagonalization with overlap
     ethr =  1.41E-06,  avg # of iterations =  3.8

     total cpu time spent up to now is       84.6 secs

     total energy              =    -278.70650928 Ry
     estimated scf accuracy    <       0.00055635 Ry

     iteration #  8     ecut=    90.00 Ry     beta= 0.70
     Davidson diagonalization with overlap
     ethr =  8.69E-07,  avg # of iterations =  2.0

     total cpu time spent up to now is       94.9 secs

     total energy              =    -278.70615715 Ry
     estimated scf accuracy    <       0.00189488 Ry

     iteration #  9     ecut=    90.00 Ry     beta= 0.70
     Davidson diagonalization with overlap
     ethr =  8.69E-07,  avg # of iterations =  1.8

     total cpu time spent up to now is      102.8 secs

     total energy              =    -278.70598979 Ry
     estimated scf accuracy    <       0.00080600 Ry

     iteration # 10     ecut=    90.00 Ry     beta= 0.70
     Davidson diagonalization with overlap
     ethr =  8.69E-07,  avg # of iterations =  2.0

     total cpu time spent up to now is      111.3 secs

     total energy              =    -278.70598014 Ry
     estimated scf accuracy    <       0.00019225 Ry

     iteration # 11     ecut=    90.00 Ry     beta= 0.70
     Davidson diagonalization with overlap
     ethr =  3.00E-07,  avg # of iterations =  1.9

     total cpu time spent up to now is      119.6 secs

     total energy              =    -278.70597832 Ry
     estimated scf accuracy    <       0.00004027 Ry

     iteration # 12     ecut=    90.00 Ry     beta= 0.70
     Davidson diagonalization with overlap
     ethr =  6.29E-08,  avg # of iterations =  2.1

     total cpu time spent up to now is      129.7 secs

     total energy              =    -278.70598922 Ry
     estimated scf accuracy    <       0.00000069 Ry

     iteration # 13     ecut=    90.00 Ry     beta= 0.70
     Davidson diagonalization with overlap
     ethr =  1.08E-09,  avg # of iterations =  5.1

     total cpu time spent up to now is      145.0 secs

     total energy              =    -278.70599009 Ry
     estimated scf accuracy    <       0.00000150 Ry

     iteration # 14     ecut=    90.00 Ry     beta= 0.70
     Davidson diagonalization with overlap
     ethr =  1.08E-09,  avg # of iterations =  3.0

     total cpu time spent up to now is      157.4 secs

     End of self-consistent calculation

     Number of k-points >= 100: set verbosity='high' to print the bands.

     highest occupied level (ev):    -4.0920

!    total energy              =    -278.70599041 Ry
     estimated scf accuracy    <       0.00000002 Ry

     The total energy is the sum of the following terms:
     one-electron contribution =    -242.06407339 Ry
     hartree contribution      =     141.42461023 Ry
     xc contribution           =     -70.27397566 Ry
     ewald contribution        =    -107.79255160 Ry

     convergence has been achieved in  14 iterations

     Forces acting on atoms (cartesian axes, Ry/au):

     atom    1 type  2   force =     0.00000000   -0.02219047    0.01623743
     atom    2 type  2   force =     0.00000000    0.02219050    0.01623748
     atom    3 type  2   force =     0.00000000   -0.02219075    0.01623760
     atom    4 type  2   force =     0.00000000    0.02219077    0.01623762
     atom    5 type  2   force =     0.00000000   -0.02311766    0.01481932
     atom    6 type  2   force =     0.00000000    0.02311751    0.01481918
     atom    7 type  2   force =     0.00000000   -0.02311758    0.01481929
     atom    8 type  2   force =     0.00000000    0.02311764    0.01481928
     atom    9 type  1   force =     0.00000000   -0.00065287   -0.02533406
     atom   10 type  1   force =     0.00000000    0.00065290   -0.02533408
     atom   11 type  1   force =     0.00000000   -0.00065289   -0.02533406
     atom   12 type  1   force =     0.00000000    0.00065291   -0.02533401
     atom   13 type  1   force =     0.00000000    0.02360020    0.00917228
     atom   14 type  1   force =     0.00000000   -0.02360011    0.00917228
     atom   15 type  1   force =     0.00000000    0.02360012    0.00917227
     atom   16 type  1   force =     0.00000000   -0.02360012    0.00917229
     atom   17 type  1   force =    -0.02140089    0.01102941   -0.00744751
     atom   18 type  1   force =     0.02140094   -0.01102945   -0.00744755
     atom   19 type  1   force =    -0.02140094   -0.01102945   -0.00744755
     atom   20 type  1   force =     0.02140089    0.01102941   -0.00744751
     atom   21 type  1   force =    -0.02140085    0.01102938   -0.00744749
     atom   22 type  1   force =     0.02140087   -0.01102939   -0.00744750
     atom   23 type  1   force =    -0.02140087   -0.01102939   -0.00744750
     atom   24 type  1   force =     0.02140085    0.01102938   -0.00744749

     Total force =     0.127494     Total SCF correction =     0.000134


     Computing stress (Cartesian axis) and pressure

          total   stress  (Ry/bohr**3)                   (kbar)     P=      -28.94
  -0.00020322   0.00000000   0.00000000          -29.90        0.00        0.00
   0.00000000  -0.00019174   0.00000000            0.00      -28.21        0.00
   0.00000000   0.00000000  -0.00019515            0.00        0.00      -28.71


     Writing all to output data dir ./iceIh/iceIh.save/ :
     XML data file, charge density, pseudopotentials, collected wavefunctions

     init_run     :      6.67s CPU      6.78s WALL (       1 calls)
     electrons    :    148.36s CPU    150.47s WALL (       1 calls)
     forces       :      0.64s CPU      0.64s WALL (       1 calls)
     stress       :      9.53s CPU      9.56s WALL (       1 calls)

     Called by init_run:
     wfcinit      :      4.50s CPU      4.55s WALL (       1 calls)
     potinit      :      1.60s CPU      1.63s WALL (       1 calls)
     hinit0       :      0.48s CPU      0.48s WALL (       1 calls)

     Called by electrons:
     c_bands      :    130.50s CPU    132.26s WALL (      14 calls)
     sum_band     :     16.77s CPU     16.91s WALL (      14 calls)
     v_of_rho     :      2.58s CPU      2.69s WALL (      15 calls)
     newd         :      0.03s CPU      0.04s WALL (      15 calls)
     mix_rho      :      0.04s CPU      0.04s WALL (      14 calls)
     vdW_kernel   :      1.51s CPU      1.52s WALL (       1 calls)

     Called by c_bands:
     init_us_2    :      2.10s CPU      2.17s WALL (    3565 calls)
     cegterg      :    125.57s CPU    126.66s WALL (    1610 calls)

     Called by *egterg:
     cdiaghg      :      9.73s CPU      9.76s WALL (    5808 calls)
     h_psi        :     98.56s CPU     99.58s WALL (    5923 calls)
     s_psi        :      3.91s CPU      3.94s WALL (    5923 calls)
     g_psi        :      0.35s CPU      0.35s WALL (    4198 calls)

     Called by h_psi:
     h_psi:calbec :      6.73s CPU      6.81s WALL (    5923 calls)
     vloc_psi     :     86.73s CPU     87.62s WALL (    5923 calls)
     add_vuspsi   :      4.24s CPU      4.29s WALL (    5923 calls)

     General routines
     calbec       :      8.76s CPU      8.86s WALL (    8108 calls)
     fft          :      1.00s CPU      1.02s WALL (     967 calls)
     ffts         :      0.01s CPU      0.01s WALL (      14 calls)
     fftw         :     90.73s CPU     91.63s WALL (  367938 calls)

     Parallel routines

     PWSCF        :   2m47.85s CPU   2m56.50s WALL


   This run was terminated on:  17:56:25  26Mar2026            

=------------------------------------------------------------------------------=
   JOB DONE.
=------------------------------------------------------------------------------=
