
     Program PWSCF v.7.3.1 starts on 26Mar2026 at 17:56:28 

     This program is part of the open-source Quantum ESPRESSO suite
     for quantum simulation of materials; please cite
         "P. Giannozzi et al., J. Phys.:Condens. Matter 21 395502 (2009);
         "P. Giannozzi et al., J. Phys.:Condens. Matter 29 465901 (2017);
         "P. Giannozzi et al., J. Chem. Phys. 152 154105 (2020);
          URL http://www.quantum-espresso.org", 
     in publications or presentations arising from this work. More details at
     http://www.quantum-espresso.org/quote

     Parallel version (MPI), running on   128 processors

     MPI processes distributed on     1 nodes
     236300 MiB available memory on the printing compute node when the environment starts

     Waiting for input...
     Reading input from standard input

     Current dimensions of program PWSCF are:
     Max number of different atomic species (ntypx) = 10
     Max number of k-points (npk) =  40000
     Max angular momentum in pseudopotentials (lmaxx) =  4

     IMPORTANT: XC functional enforced from input :
     Exchange-correlation= VDW-DF2
                           (   1   4  13   0   2   0   0)
     Any further DFT definition will be discarded
     Please, verify this is what you really want

     Found identity + ( -0.5000 -0.5000 -0.0000) symmetry
     This is a supercell, fractional translations are disabled

     K-points division:     npool     =       4
     R & G space division:  proc/nbgrp/npool/nimage =      32
     Subspace diagonalization in iterative solution of the eigenvalue problem:
     a serial algorithm will be used


     Parallelization info
     --------------------
     sticks:   dense  smooth     PW     G-vecs:    dense   smooth      PW
     Min         116     116     32                 6638     6638     960
     Max         117     117     33                 6643     6643     965
     Sum        3743    3743   1025               212551   212551   30773

     Using Slab Decomposition



     bravais-lattice index     =            8
     lattice parameter (alat)  =       8.6777  a.u.
     unit-cell volume          =    1842.3460 (a.u.)^3
     number of atoms/cell      =           24
     number of atomic types    =            2
     number of electrons       =        64.00
     number of Kohn-Sham states=           32
     kinetic-energy cutoff     =      90.0000  Ry
     charge density cutoff     =     360.0000  Ry
     scf convergence threshold =      1.0E-07
     mixing beta               =       0.7000
     number of iterations used =            8  plain     mixing
     Exchange-correlation= VDW-DF2
                           (   1   4  13   0   2   0   0)

     celldm(1)=   8.677697  celldm(2)=   1.732119  celldm(3)=   1.627721
     celldm(4)=   0.000000  celldm(5)=   0.000000  celldm(6)=   0.000000

     crystal axes: (cart. coord. in units of alat)
               a(1) = (   1.000000   0.000000   0.000000 )  
               a(2) = (   0.000000   1.732119   0.000000 )  
               a(3) = (   0.000000   0.000000   1.627721 )  

     reciprocal axes: (cart. coord. in units 2 pi/alat)
               b(1) = (  1.000000  0.000000  0.000000 )  
               b(2) = (  0.000000  0.577328  0.000000 )  
               b(3) = (  0.000000  0.000000  0.614356 )  


     PseudoPot. # 1 for H  read from file:
     ./H.pbe-van_ak.UPF
     MD5 check sum: 077eb6d537518a38cb46c6de387227b7
     Pseudo is Ultrasoft, Zval =  1.0
     Generated by new atomic code, or converted to UPF format
     Using radial grid of  615 points,  1 beta functions with: 
                l(1) =   0
     Q(r) pseudized with  8 coefficients,  rinner =    0.800

     PseudoPot. # 2 for O  read from file:
     ./O.pbe-van_ak.UPF
     MD5 check sum: 78c19812648e8988a0fe644b0f25305e
     Pseudo is Ultrasoft, Zval =  6.0
     Generated by new atomic code, or converted to UPF format
     Using radial grid of  737 points,  4 beta functions with: 
                l(1) =   0
                l(2) =   0
                l(3) =   1
                l(4) =   1
     Q(r) pseudized with  8 coefficients,  rinner =    0.800   0.800   0.800


     atomic species   valence    mass     pseudopotential
     H                 1.00     1.00800     H ( 1.00)
     O                 6.00    16.00000     O ( 1.00)

      2 Sym. Ops. (no inversion) found



   Cartesian axes

     site n.     atom                  positions (alat units)
         1        O      tau(   1) = (   0.0000000   1.1505053   0.0983911  )
         2        O      tau(   2) = (   0.0000000   0.5816137   0.9122516  )
         3        O      tau(   3) = (   0.5000000   0.2844458   0.0983911  )
         4        O      tau(   4) = (   0.5000000   1.4476733   0.9122516  )
         5        O      tau(   5) = (   0.5000000   1.4413210   1.5245781  )
         6        O      tau(   6) = (   0.5000000   0.2907980   0.7107175  )
         7        O      tau(   7) = (   0.0000000   0.5752615   1.5245780  )
         8        O      tau(   8) = (   0.0000000   1.1568575   0.7107175  )
         9        H      tau(   9) = (   0.0000000   1.1476935   0.3199225  )
        10        H      tau(  10) = (   0.0000000   0.5844255   1.1337830  )
        11        H      tau(  11) = (   0.5000000   0.2816340   0.3199225  )
        12        H      tau(  12) = (   0.5000000   1.4504851   1.1337830  )
        13        H      tau(  13) = (   0.0000000   0.9389577   0.0320281  )
        14        H      tau(  14) = (   0.0000000   0.7931613   0.8458886  )
        15        H      tau(  15) = (   0.5000000   0.0728982   0.0320281  )
        16        H      tau(  16) = (   0.5000000   1.6592209   0.8458886  )
        17        H      tau(  17) = (   0.6777387   1.3318248   1.5989889  )
        18        H      tau(  18) = (   0.3222613   0.4002942   0.7851284  )
        19        H      tau(  19) = (   0.6777387   0.4002942   0.7851284  )
        20        H      tau(  20) = (   0.3222613   1.3318248   1.5989889  )
        21        H      tau(  21) = (   0.1777387   0.4657653   1.5989889  )
        22        H      tau(  22) = (   0.8222613   1.2663538   0.7851284  )
        23        H      tau(  23) = (   0.1777387   1.2663538   0.7851284  )
        24        H      tau(  24) = (   0.8222613   0.4657653   1.5989889  )

     number of k points=   460

     Number of k-points >= 100: set verbosity='high' to print them.

     Dense  grid:   212551 G-vectors     FFT dimensions: (  54,  96,  90)

     Estimated max dynamical RAM per process >      55.59 MB

     Estimated total dynamical RAM >       6.80 GB

     Initial potential from superposition of free atoms

     starting charge      63.9998, renormalised to      64.0000


     %%%%%%%%%%%%%%%%%%%%%%%%%%%%%%%%%%%%%%%%%%%%%%%%%%%%%%%%%%%%%%%%%%%%%%%%
     %                                                                      %
     % You are using vdW-DF, which was implemented by the Thonhauser group. %
     % Please cite the following two papers that made this development      %
     % possible and the two reviews that describe the various versions:     %
     %                                                                      %
     %   T. Thonhauser et al., PRL 115, 136402 (2015).                      %
     %   T. Thonhauser et al., PRB 76, 125112 (2007).                       %
     %   K. Berland et al., Rep. Prog. Phys. 78, 066501 (2015).             %
     %   D.C. Langreth et al., J. Phys.: Condens. Matter 21, 084203 (2009). %
     %                                                                      %
     % If you are calculating stress with vdW-DF, please also cite:         %
     %                                                                      %
     %   R. Sabatini et al., J. Phys.: Condens. Matter 24, 424209 (2012).   %
     %                                                                      %
     %%%%%%%%%%%%%%%%%%%%%%%%%%%%%%%%%%%%%%%%%%%%%%%%%%%%%%%%%%%%%%%%%%%%%%%%

     %%%%%%%%%%%%%%%%%%%%%%%%%%%%%%%%%%%%%%%%%%%%%%%%%%%%%%%%%%%%%%%%%%%%%%%%
     %                                                                      %
     %  vdW-DF NEWS:                                                        %
     %                                                                      %
     %  * vdW-DF3 is now available. DOI: 10.1021/acs.jctc.0c00471           %
     %    use with input_dft = 'vdW-DF3-opt1' or 'vdW-DF3-opt2'             %
     %                                                                      %
     %  * Unscreened and range-separated hybrid vdW-DF-cx functionals       %
     %    DOI: 10.1063/1.4986522 and 10.1088/1361-648X/ac2ad2               %
     %    use with input_dft = 'vdW-DF-cx0'    and 'vdW-DF-ahcx'            %
     %  * Unscreened and range-separated hybrid vdW-DF2-b86r functionals    %
     %    DOI: 10.1063/1.4986522 and DOI: 10.1103/PhysRevX.12.041003        %
     %    use with input_dft = 'vdW-DF2-br0' and 'vdW-DF2-ahbr'             %
     %                                                                      %
     %%%%%%%%%%%%%%%%%%%%%%%%%%%%%%%%%%%%%%%%%%%%%%%%%%%%%%%%%%%%%%%%%%%%%%%%


     Starting wfcs are   48 randomized atomic wfcs

     total cpu time spent up to now is        7.0 secs

     per-process dynamical memory:    63.7 Mb

     Self-consistent Calculation

     iteration #  1     ecut=    90.00 Ry     beta= 0.70
     Davidson diagonalization with overlap
     ethr =  1.00E-02,  avg # of iterations =  2.0

     total cpu time spent up to now is       16.6 secs

     total energy              =    -277.30556902 Ry
     estimated scf accuracy    <       3.09081094 Ry

     iteration #  2     ecut=    90.00 Ry     beta= 0.70
     Davidson diagonalization with overlap
     ethr =  4.83E-03,  avg # of iterations =  3.0

     total cpu time spent up to now is       29.6 secs

     total energy              =    -278.29933216 Ry
     estimated scf accuracy    <       2.38101028 Ry

     iteration #  3     ecut=    90.00 Ry     beta= 0.70
     Davidson diagonalization with overlap
     ethr =  3.72E-03,  avg # of iterations =  2.0

     total cpu time spent up to now is       39.5 secs

     total energy              =    -278.61715822 Ry
     estimated scf accuracy    <       0.10384662 Ry

     iteration #  4     ecut=    90.00 Ry     beta= 0.70
     Davidson diagonalization with overlap
     ethr =  1.62E-04,  avg # of iterations =  4.0

     total cpu time spent up to now is       54.3 secs

     total energy              =    -278.69805585 Ry
     estimated scf accuracy    <       0.12656296 Ry

     iteration #  5     ecut=    90.00 Ry     beta= 0.70
     Davidson diagonalization with overlap
     ethr =  1.62E-04,  avg # of iterations =  2.0

     total cpu time spent up to now is       62.4 secs

     total energy              =    -278.69922963 Ry
     estimated scf accuracy    <       0.02015703 Ry

     iteration #  6     ecut=    90.00 Ry     beta= 0.70
     Davidson diagonalization with overlap
     ethr =  3.15E-05,  avg # of iterations =  2.0

     total cpu time spent up to now is       72.3 secs

     total energy              =    -278.70343475 Ry
     estimated scf accuracy    <       0.00091156 Ry

     iteration #  7     ecut=    90.00 Ry     beta= 0.70
     Davidson diagonalization with overlap
     ethr =  1.42E-06,  avg # of iterations =  3.9

     total cpu time spent up to now is       84.5 secs

     total energy              =    -278.70450103 Ry
     estimated scf accuracy    <       0.00056114 Ry

     iteration #  8     ecut=    90.00 Ry     beta= 0.70
     Davidson diagonalization with overlap
     ethr =  8.77E-07,  avg # of iterations =  2.0

     total cpu time spent up to now is       94.6 secs

     total energy              =    -278.70420465 Ry
     estimated scf accuracy    <       0.00175849 Ry

     iteration #  9     ecut=    90.00 Ry     beta= 0.70
     Davidson diagonalization with overlap
     ethr =  8.77E-07,  avg # of iterations =  1.0

     total cpu time spent up to now is      101.8 secs

     total energy              =    -278.70399317 Ry
     estimated scf accuracy    <       0.00082775 Ry

     iteration # 10     ecut=    90.00 Ry     beta= 0.70
     Davidson diagonalization with overlap
     ethr =  8.77E-07,  avg # of iterations =  2.0

     total cpu time spent up to now is      111.5 secs

     total energy              =    -278.70400942 Ry
     estimated scf accuracy    <       0.00016627 Ry

     iteration # 11     ecut=    90.00 Ry     beta= 0.70
     Davidson diagonalization with overlap
     ethr =  2.60E-07,  avg # of iterations =  1.2

     total cpu time spent up to now is      119.0 secs

     total energy              =    -278.70399870 Ry
     estimated scf accuracy    <       0.00004897 Ry

     iteration # 12     ecut=    90.00 Ry     beta= 0.70
     Davidson diagonalization with overlap
     ethr =  7.65E-08,  avg # of iterations =  2.3

     total cpu time spent up to now is      129.2 secs

     total energy              =    -278.70401463 Ry
     estimated scf accuracy    <       0.00000013 Ry

     iteration # 13     ecut=    90.00 Ry     beta= 0.70
     Davidson diagonalization with overlap
     ethr =  2.11E-10,  avg # of iterations =  6.0

     total cpu time spent up to now is      146.4 secs

     total energy              =    -278.70401408 Ry
     estimated scf accuracy    <       0.00000388 Ry

     iteration # 14     ecut=    90.00 Ry     beta= 0.70
     Davidson diagonalization with overlap
     ethr =  2.11E-10,  avg # of iterations =  5.0

     total cpu time spent up to now is      164.6 secs

     End of self-consistent calculation

     Number of k-points >= 100: set verbosity='high' to print the bands.

     highest occupied level (ev):    -4.1133

!    total energy              =    -278.70401482 Ry
     estimated scf accuracy    <       0.00000005 Ry

     The total energy is the sum of the following terms:
     one-electron contribution =    -242.45677325 Ry
     hartree contribution      =     141.57426286 Ry
     xc contribution           =     -70.24031079 Ry
     ewald contribution        =    -107.58119365 Ry

     convergence has been achieved in  14 iterations

     Forces acting on atoms (cartesian axes, Ry/au):

     atom    1 type  2   force =     0.00000000   -0.02441120    0.01784501
     atom    2 type  2   force =     0.00000000    0.02441073    0.01784477
     atom    3 type  2   force =     0.00000000   -0.02441156    0.01784533
     atom    4 type  2   force =     0.00000000    0.02440998    0.01784410
     atom    5 type  2   force =     0.00000000   -0.02547987    0.01644779
     atom    6 type  2   force =     0.00000000    0.02547998    0.01644818
     atom    7 type  2   force =     0.00000000   -0.02547914    0.01644743
     atom    8 type  2   force =     0.00000000    0.02548065    0.01644849
     atom    9 type  1   force =     0.00000000   -0.00078884   -0.02793533
     atom   10 type  1   force =     0.00000000    0.00078891   -0.02793576
     atom   11 type  1   force =     0.00000000   -0.00078885   -0.02793535
     atom   12 type  1   force =     0.00000000    0.00078887   -0.02793583
     atom   13 type  1   force =     0.00000000    0.02601083    0.01011477
     atom   14 type  1   force =     0.00000000   -0.02601056    0.01011466
     atom   15 type  1   force =     0.00000000    0.02601058    0.01011469
     atom   16 type  1   force =     0.00000000   -0.02601091    0.01011475
     atom   17 type  1   force =    -0.02360438    0.01218849   -0.00823594
     atom   18 type  1   force =     0.02360443   -0.01218843   -0.00823596
     atom   19 type  1   force =    -0.02360443   -0.01218843   -0.00823596
     atom   20 type  1   force =     0.02360438    0.01218849   -0.00823594
     atom   21 type  1   force =    -0.02360445    0.01218855   -0.00823599
     atom   22 type  1   force =     0.02360444   -0.01218841   -0.00823595
     atom   23 type  1   force =    -0.02360444   -0.01218841   -0.00823595
     atom   24 type  1   force =     0.02360445    0.01218855   -0.00823599

     Total force =     0.140586     Total SCF correction =     0.000129


     Computing stress (Cartesian axis) and pressure

          total   stress  (Ry/bohr**3)                   (kbar)     P=      -31.96
  -0.00022360   0.00000000   0.00000000          -32.89        0.00        0.00
   0.00000000  -0.00021272   0.00000000            0.00      -31.29        0.00
   0.00000000   0.00000000  -0.00021547            0.00        0.00      -31.70


     Writing all to output data dir ./iceIh/iceIh.save/ :
     XML data file, charge density, pseudopotentials, collected wavefunctions

     init_run     :      6.57s CPU      6.72s WALL (       1 calls)
     electrons    :    155.57s CPU    157.66s WALL (       1 calls)
     forces       :      0.63s CPU      0.65s WALL (       1 calls)
     stress       :      9.62s CPU      9.64s WALL (       1 calls)

     Called by init_run:
     wfcinit      :      4.41s CPU      4.50s WALL (       1 calls)
     potinit      :      1.59s CPU      1.63s WALL (       1 calls)
     hinit0       :      0.48s CPU      0.48s WALL (       1 calls)

     Called by electrons:
     c_bands      :    137.75s CPU    139.44s WALL (      14 calls)
     sum_band     :     16.76s CPU     16.91s WALL (      14 calls)
     v_of_rho     :      2.54s CPU      2.70s WALL (      15 calls)
     newd         :      0.03s CPU      0.05s WALL (      15 calls)
     mix_rho      :      0.05s CPU      0.05s WALL (      14 calls)
     vdW_kernel   :      1.51s CPU      1.52s WALL (       1 calls)

     Called by c_bands:
     init_us_2    :      2.12s CPU      2.20s WALL (    3565 calls)
     cegterg      :    132.80s CPU    133.86s WALL (    1610 calls)

     Called by *egterg:
     cdiaghg      :     10.40s CPU     10.44s WALL (    6006 calls)
     h_psi        :    103.65s CPU    104.66s WALL (    6121 calls)
     s_psi        :      4.08s CPU      4.10s WALL (    6121 calls)
     g_psi        :      0.38s CPU      0.38s WALL (    4396 calls)

     Called by h_psi:
     h_psi:calbec :      7.09s CPU      7.15s WALL (    6121 calls)
     vloc_psi     :     91.45s CPU     92.37s WALL (    6121 calls)
     add_vuspsi   :      4.30s CPU      4.32s WALL (    6121 calls)

     General routines
     calbec       :      9.18s CPU      9.26s WALL (    8306 calls)
     fft          :      0.99s CPU      1.02s WALL (     967 calls)
     ffts         :      0.01s CPU      0.01s WALL (      14 calls)
     fftw         :     95.00s CPU     95.91s WALL (  386038 calls)

     Parallel routines

     PWSCF        :   2m54.80s CPU   3m 3.58s WALL


   This run was terminated on:  17:59:32  26Mar2026            

=------------------------------------------------------------------------------=
   JOB DONE.
=------------------------------------------------------------------------------=
