
     Program PWSCF v.7.3.1 starts on 26Mar2026 at 17:59:37 

     This program is part of the open-source Quantum ESPRESSO suite
     for quantum simulation of materials; please cite
         "P. Giannozzi et al., J. Phys.:Condens. Matter 21 395502 (2009);
         "P. Giannozzi et al., J. Phys.:Condens. Matter 29 465901 (2017);
         "P. Giannozzi et al., J. Chem. Phys. 152 154105 (2020);
          URL http://www.quantum-espresso.org", 
     in publications or presentations arising from this work. More details at
     http://www.quantum-espresso.org/quote

     Parallel version (MPI), running on   128 processors

     MPI processes distributed on     1 nodes
     236274 MiB available memory on the printing compute node when the environment starts

     Waiting for input...
     Reading input from standard input

     Current dimensions of program PWSCF are:
     Max number of different atomic species (ntypx) = 10
     Max number of k-points (npk) =  40000
     Max angular momentum in pseudopotentials (lmaxx) =  4

     IMPORTANT: XC functional enforced from input :
     Exchange-correlation= VDW-DF2
                           (   1   4  13   0   2   0   0)
     Any further DFT definition will be discarded
     Please, verify this is what you really want

     Found identity + ( -0.5000 -0.5000 -0.0000) symmetry
     This is a supercell, fractional translations are disabled

     K-points division:     npool     =       4
     R & G space division:  proc/nbgrp/npool/nimage =      32
     Subspace diagonalization in iterative solution of the eigenvalue problem:
     a serial algorithm will be used


     Parallelization info
     --------------------
     sticks:   dense  smooth     PW     G-vecs:    dense   smooth      PW
     Min         117     117     32                 6681     6681     964
     Max         118     118     33                 6686     6686     967
     Sum        3759    3759   1029               213875   213875   30873

     Using Slab Decomposition



     bravais-lattice index     =            8
     lattice parameter (alat)  =       8.6947  a.u.
     unit-cell volume          =    1853.2046 (a.u.)^3
     number of atoms/cell      =           24
     number of atomic types    =            2
     number of electrons       =        64.00
     number of Kohn-Sham states=           32
     kinetic-energy cutoff     =      90.0000  Ry
     charge density cutoff     =     360.0000  Ry
     scf convergence threshold =      1.0E-07
     mixing beta               =       0.7000
     number of iterations used =            8  plain     mixing
     Exchange-correlation= VDW-DF2
                           (   1   4  13   0   2   0   0)

     celldm(1)=   8.694712  celldm(2)=   1.732119  celldm(3)=   1.627721
     celldm(4)=   0.000000  celldm(5)=   0.000000  celldm(6)=   0.000000

     crystal axes: (cart. coord. in units of alat)
               a(1) = (   1.000000   0.000000   0.000000 )  
               a(2) = (   0.000000   1.732119   0.000000 )  
               a(3) = (   0.000000   0.000000   1.627721 )  

     reciprocal axes: (cart. coord. in units 2 pi/alat)
               b(1) = (  1.000000  0.000000  0.000000 )  
               b(2) = (  0.000000  0.577328  0.000000 )  
               b(3) = (  0.000000  0.000000  0.614356 )  


     PseudoPot. # 1 for H  read from file:
     ./H.pbe-van_ak.UPF
     MD5 check sum: 077eb6d537518a38cb46c6de387227b7
     Pseudo is Ultrasoft, Zval =  1.0
     Generated by new atomic code, or converted to UPF format
     Using radial grid of  615 points,  1 beta functions with: 
                l(1) =   0
     Q(r) pseudized with  8 coefficients,  rinner =    0.800

     PseudoPot. # 2 for O  read from file:
     ./O.pbe-van_ak.UPF
     MD5 check sum: 78c19812648e8988a0fe644b0f25305e
     Pseudo is Ultrasoft, Zval =  6.0
     Generated by new atomic code, or converted to UPF format
     Using radial grid of  737 points,  4 beta functions with: 
                l(1) =   0
                l(2) =   0
                l(3) =   1
                l(4) =   1
     Q(r) pseudized with  8 coefficients,  rinner =    0.800   0.800   0.800


     atomic species   valence    mass     pseudopotential
     H                 1.00     1.00800     H ( 1.00)
     O                 6.00    16.00000     O ( 1.00)

      2 Sym. Ops. (no inversion) found



   Cartesian axes

     site n.     atom                  positions (alat units)
         1        O      tau(   1) = (   0.0000000   1.1505053   0.0983911  )
         2        O      tau(   2) = (   0.0000000   0.5816137   0.9122516  )
         3        O      tau(   3) = (   0.5000000   0.2844458   0.0983911  )
         4        O      tau(   4) = (   0.5000000   1.4476733   0.9122516  )
         5        O      tau(   5) = (   0.5000000   1.4413210   1.5245781  )
         6        O      tau(   6) = (   0.5000000   0.2907980   0.7107175  )
         7        O      tau(   7) = (   0.0000000   0.5752615   1.5245780  )
         8        O      tau(   8) = (   0.0000000   1.1568575   0.7107175  )
         9        H      tau(   9) = (   0.0000000   1.1476935   0.3199225  )
        10        H      tau(  10) = (   0.0000000   0.5844255   1.1337830  )
        11        H      tau(  11) = (   0.5000000   0.2816340   0.3199225  )
        12        H      tau(  12) = (   0.5000000   1.4504851   1.1337830  )
        13        H      tau(  13) = (   0.0000000   0.9389577   0.0320281  )
        14        H      tau(  14) = (   0.0000000   0.7931613   0.8458886  )
        15        H      tau(  15) = (   0.5000000   0.0728982   0.0320281  )
        16        H      tau(  16) = (   0.5000000   1.6592209   0.8458886  )
        17        H      tau(  17) = (   0.6777387   1.3318248   1.5989889  )
        18        H      tau(  18) = (   0.3222613   0.4002942   0.7851284  )
        19        H      tau(  19) = (   0.6777387   0.4002942   0.7851284  )
        20        H      tau(  20) = (   0.3222613   1.3318248   1.5989889  )
        21        H      tau(  21) = (   0.1777387   0.4657653   1.5989889  )
        22        H      tau(  22) = (   0.8222613   1.2663538   0.7851284  )
        23        H      tau(  23) = (   0.1777387   1.2663538   0.7851284  )
        24        H      tau(  24) = (   0.8222613   0.4657653   1.5989889  )

     number of k points=   460

     Number of k-points >= 100: set verbosity='high' to print them.

     Dense  grid:   213875 G-vectors     FFT dimensions: (  54,  96,  90)

     Estimated max dynamical RAM per process >      55.91 MB

     Estimated total dynamical RAM >       6.84 GB

     Initial potential from superposition of free atoms

     starting charge      63.9998, renormalised to      64.0000


     %%%%%%%%%%%%%%%%%%%%%%%%%%%%%%%%%%%%%%%%%%%%%%%%%%%%%%%%%%%%%%%%%%%%%%%%
     %                                                                      %
     % You are using vdW-DF, which was implemented by the Thonhauser group. %
     % Please cite the following two papers that made this development      %
     % possible and the two reviews that describe the various versions:     %
     %                                                                      %
     %   T. Thonhauser et al., PRL 115, 136402 (2015).                      %
     %   T. Thonhauser et al., PRB 76, 125112 (2007).                       %
     %   K. Berland et al., Rep. Prog. Phys. 78, 066501 (2015).             %
     %   D.C. Langreth et al., J. Phys.: Condens. Matter 21, 084203 (2009). %
     %                                                                      %
     % If you are calculating stress with vdW-DF, please also cite:         %
     %                                                                      %
     %   R. Sabatini et al., J. Phys.: Condens. Matter 24, 424209 (2012).   %
     %                                                                      %
     %%%%%%%%%%%%%%%%%%%%%%%%%%%%%%%%%%%%%%%%%%%%%%%%%%%%%%%%%%%%%%%%%%%%%%%%

     %%%%%%%%%%%%%%%%%%%%%%%%%%%%%%%%%%%%%%%%%%%%%%%%%%%%%%%%%%%%%%%%%%%%%%%%
     %                                                                      %
     %  vdW-DF NEWS:                                                        %
     %                                                                      %
     %  * vdW-DF3 is now available. DOI: 10.1021/acs.jctc.0c00471           %
     %    use with input_dft = 'vdW-DF3-opt1' or 'vdW-DF3-opt2'             %
     %                                                                      %
     %  * Unscreened and range-separated hybrid vdW-DF-cx functionals       %
     %    DOI: 10.1063/1.4986522 and 10.1088/1361-648X/ac2ad2               %
     %    use with input_dft = 'vdW-DF-cx0'    and 'vdW-DF-ahcx'            %
     %  * Unscreened and range-separated hybrid vdW-DF2-b86r functionals    %
     %    DOI: 10.1063/1.4986522 and DOI: 10.1103/PhysRevX.12.041003        %
     %    use with input_dft = 'vdW-DF2-br0' and 'vdW-DF2-ahbr'             %
     %                                                                      %
     %%%%%%%%%%%%%%%%%%%%%%%%%%%%%%%%%%%%%%%%%%%%%%%%%%%%%%%%%%%%%%%%%%%%%%%%


     Starting wfcs are   48 randomized atomic wfcs

     total cpu time spent up to now is        6.9 secs

     per-process dynamical memory:    63.6 Mb

     Self-consistent Calculation

     iteration #  1     ecut=    90.00 Ry     beta= 0.70
     Davidson diagonalization with overlap
     ethr =  1.00E-02,  avg # of iterations =  2.0

     total cpu time spent up to now is       16.6 secs

     total energy              =    -277.30453266 Ry
     estimated scf accuracy    <       3.08334791 Ry

     iteration #  2     ecut=    90.00 Ry     beta= 0.70
     Davidson diagonalization with overlap
     ethr =  4.82E-03,  avg # of iterations =  3.0

     total cpu time spent up to now is       29.6 secs

     total energy              =    -278.29543522 Ry
     estimated scf accuracy    <       2.39294017 Ry

     iteration #  3     ecut=    90.00 Ry     beta= 0.70
     Davidson diagonalization with overlap
     ethr =  3.74E-03,  avg # of iterations =  2.0

     total cpu time spent up to now is       39.4 secs

     total energy              =    -278.61404726 Ry
     estimated scf accuracy    <       0.10501716 Ry

     iteration #  4     ecut=    90.00 Ry     beta= 0.70
     Davidson diagonalization with overlap
     ethr =  1.64E-04,  avg # of iterations =  4.0

     total cpu time spent up to now is       54.2 secs

     total energy              =    -278.69582754 Ry
     estimated scf accuracy    <       0.12722616 Ry

     iteration #  5     ecut=    90.00 Ry     beta= 0.70
     Davidson diagonalization with overlap
     ethr =  1.64E-04,  avg # of iterations =  2.0

     total cpu time spent up to now is       62.3 secs

     total energy              =    -278.69695653 Ry
     estimated scf accuracy    <       0.02041462 Ry

     iteration #  6     ecut=    90.00 Ry     beta= 0.70
     Davidson diagonalization with overlap
     ethr =  3.19E-05,  avg # of iterations =  2.0

     total cpu time spent up to now is       72.1 secs

     total energy              =    -278.70118801 Ry
     estimated scf accuracy    <       0.00092800 Ry

     iteration #  7     ecut=    90.00 Ry     beta= 0.70
     Davidson diagonalization with overlap
     ethr =  1.45E-06,  avg # of iterations =  3.9

     total cpu time spent up to now is       84.3 secs

     total energy              =    -278.70224991 Ry
     estimated scf accuracy    <       0.00058161 Ry

     iteration #  8     ecut=    90.00 Ry     beta= 0.70
     Davidson diagonalization with overlap
     ethr =  9.09E-07,  avg # of iterations =  2.0

     total cpu time spent up to now is       94.2 secs

     total energy              =    -278.70197556 Ry
     estimated scf accuracy    <       0.00170306 Ry

     iteration #  9     ecut=    90.00 Ry     beta= 0.70
     Davidson diagonalization with overlap
     ethr =  9.09E-07,  avg # of iterations =  1.0

     total cpu time spent up to now is      101.5 secs

     total energy              =    -278.70173113 Ry
     estimated scf accuracy    <       0.00084189 Ry

     iteration # 10     ecut=    90.00 Ry     beta= 0.70
     Davidson diagonalization with overlap
     ethr =  9.09E-07,  avg # of iterations =  2.0

     total cpu time spent up to now is      111.5 secs

     total energy              =    -278.70176769 Ry
     estimated scf accuracy    <       0.00013911 Ry

     iteration # 11     ecut=    90.00 Ry     beta= 0.70
     Davidson diagonalization with overlap
     ethr =  2.17E-07,  avg # of iterations =  2.0

     total cpu time spent up to now is      120.3 secs

     total energy              =    -278.70175879 Ry
     estimated scf accuracy    <       0.00003703 Ry

     iteration # 12     ecut=    90.00 Ry     beta= 0.70
     Davidson diagonalization with overlap
     ethr =  5.79E-08,  avg # of iterations =  3.0

     total cpu time spent up to now is      131.9 secs

     total energy              =    -278.70177712 Ry
     estimated scf accuracy    <       0.00000500 Ry

     iteration # 13     ecut=    90.00 Ry     beta= 0.70
     Davidson diagonalization with overlap
     ethr =  7.81E-09,  avg # of iterations =  2.0

     total cpu time spent up to now is      140.3 secs

     total energy              =    -278.70177550 Ry
     estimated scf accuracy    <       0.00000399 Ry

     iteration # 14     ecut=    90.00 Ry     beta= 0.70
     Davidson diagonalization with overlap
     ethr =  6.24E-09,  avg # of iterations =  2.0

     total cpu time spent up to now is      150.3 secs

     End of self-consistent calculation

     Number of k-points >= 100: set verbosity='high' to print the bands.

     highest occupied level (ev):    -4.1345

!    total energy              =    -278.70177607 Ry
     estimated scf accuracy    <       0.00000010 Ry

     The total energy is the sum of the following terms:
     one-electron contribution =    -242.85382900 Ry
     hartree contribution      =     141.73096238 Ry
     xc contribution           =     -70.20824651 Ry
     ewald contribution        =    -107.37066294 Ry

     convergence has been achieved in  14 iterations

     Forces acting on atoms (cartesian axes, Ry/au):

     atom    1 type  2   force =     0.00000000   -0.02646853    0.01947017
     atom    2 type  2   force =     0.00000000    0.02646834    0.01947010
     atom    3 type  2   force =     0.00000000   -0.02646852    0.01947022
     atom    4 type  2   force =     0.00000000    0.02646845    0.01947013
     atom    5 type  2   force =     0.00000000   -0.02772118    0.01803601
     atom    6 type  2   force =     0.00000000    0.02772125    0.01803602
     atom    7 type  2   force =     0.00000000   -0.02772103    0.01803588
     atom    8 type  2   force =     0.00000000    0.02772113    0.01803594
     atom    9 type  1   force =     0.00000000   -0.00092004   -0.03054491
     atom   10 type  1   force =     0.00000000    0.00092005   -0.03054501
     atom   11 type  1   force =     0.00000000   -0.00092005   -0.03054493
     atom   12 type  1   force =     0.00000000    0.00092007   -0.03054495
     atom   13 type  1   force =     0.00000000    0.02843999    0.01109130
     atom   14 type  1   force =     0.00000000   -0.02843994    0.01109128
     atom   15 type  1   force =     0.00000000    0.02843994    0.01109131
     atom   16 type  1   force =     0.00000000   -0.02843995    0.01109130
     atom   17 type  1   force =    -0.02581399    0.01336297   -0.00902621
     atom   18 type  1   force =     0.02581403   -0.01336297   -0.00902624
     atom   19 type  1   force =    -0.02581403   -0.01336297   -0.00902624
     atom   20 type  1   force =     0.02581399    0.01336297   -0.00902621
     atom   21 type  1   force =    -0.02581400    0.01336298   -0.00902623
     atom   22 type  1   force =     0.02581403   -0.01336297   -0.00902624
     atom   23 type  1   force =    -0.02581403   -0.01336297   -0.00902624
     atom   24 type  1   force =     0.02581400    0.01336298   -0.00902623

     Total force =     0.153518     Total SCF correction =     0.000214


     Computing stress (Cartesian axis) and pressure

          total   stress  (Ry/bohr**3)                   (kbar)     P=      -34.37
  -0.00024009   0.00000000   0.00000000          -35.32        0.00        0.00
   0.00000000  -0.00022935   0.00000000            0.00      -33.74        0.00
   0.00000000   0.00000000  -0.00023152            0.00        0.00      -34.06


     Writing all to output data dir ./iceIh/iceIh.save/ :
     XML data file, charge density, pseudopotentials, collected wavefunctions

     init_run     :      6.49s CPU      6.62s WALL (       1 calls)
     electrons    :    140.74s CPU    143.45s WALL (       1 calls)
     forces       :      0.63s CPU      0.65s WALL (       1 calls)
     stress       :      9.63s CPU      9.64s WALL (       1 calls)

     Called by init_run:
     wfcinit      :      4.32s CPU      4.40s WALL (       1 calls)
     potinit      :      1.59s CPU      1.63s WALL (       1 calls)
     hinit0       :      0.49s CPU      0.49s WALL (       1 calls)

     Called by electrons:
     c_bands      :    123.01s CPU    125.34s WALL (      14 calls)
     sum_band     :     16.63s CPU     16.81s WALL (      14 calls)
     v_of_rho     :      2.56s CPU      2.69s WALL (      15 calls)
     newd         :      0.04s CPU      0.04s WALL (      15 calls)
     mix_rho      :      0.04s CPU      0.04s WALL (      14 calls)
     vdW_kernel   :      1.51s CPU      1.52s WALL (       1 calls)

     Called by c_bands:
     init_us_2    :      2.17s CPU      2.24s WALL (    3565 calls)
     cegterg      :    118.82s CPU    119.82s WALL (    1610 calls)

     Called by *egterg:
     cdiaghg      :      8.87s CPU      8.91s WALL (    5367 calls)
     h_psi        :     93.97s CPU     94.93s WALL (    5482 calls)
     s_psi        :      3.79s CPU      3.81s WALL (    5482 calls)
     g_psi        :      0.33s CPU      0.33s WALL (    3757 calls)

     Called by h_psi:
     h_psi:calbec :      6.46s CPU      6.50s WALL (    5482 calls)
     vloc_psi     :     82.69s CPU     83.57s WALL (    5482 calls)
     add_vuspsi   :      4.03s CPU      4.05s WALL (    5482 calls)

     General routines
     calbec       :      8.50s CPU      8.57s WALL (    7667 calls)
     fft          :      1.02s CPU      1.03s WALL (     967 calls)
     ffts         :      0.01s CPU      0.01s WALL (      14 calls)
     fftw         :     87.15s CPU     88.05s WALL (  354962 calls)

     Parallel routines

     PWSCF        :   2m40.77s CPU   2m48.63s WALL


   This run was terminated on:  18: 2:26  26Mar2026            

=------------------------------------------------------------------------------=
   JOB DONE.
=------------------------------------------------------------------------------=
