
     Program PWSCF v.7.3.1 starts on 26Mar2026 at 18: 5:31 

     This program is part of the open-source Quantum ESPRESSO suite
     for quantum simulation of materials; please cite
         "P. Giannozzi et al., J. Phys.:Condens. Matter 21 395502 (2009);
         "P. Giannozzi et al., J. Phys.:Condens. Matter 29 465901 (2017);
         "P. Giannozzi et al., J. Chem. Phys. 152 154105 (2020);
          URL http://www.quantum-espresso.org", 
     in publications or presentations arising from this work. More details at
     http://www.quantum-espresso.org/quote

     Parallel version (MPI), running on   128 processors

     MPI processes distributed on     1 nodes
     236243 MiB available memory on the printing compute node when the environment starts

     Waiting for input...
     Reading input from standard input

     Current dimensions of program PWSCF are:
     Max number of different atomic species (ntypx) = 10
     Max number of k-points (npk) =  40000
     Max angular momentum in pseudopotentials (lmaxx) =  4

     IMPORTANT: XC functional enforced from input :
     Exchange-correlation= VDW-DF2
                           (   1   4  13   0   2   0   0)
     Any further DFT definition will be discarded
     Please, verify this is what you really want

     Found identity + ( -0.5000 -0.5000 -0.0000) symmetry
     This is a supercell, fractional translations are disabled

     K-points division:     npool     =       4
     R & G space division:  proc/nbgrp/npool/nimage =      32
     Subspace diagonalization in iterative solution of the eigenvalue problem:
     a serial algorithm will be used


     Parallelization info
     --------------------
     sticks:   dense  smooth     PW     G-vecs:    dense   smooth      PW
     Min         118     118     32                 6756     6756     974
     Max         119     119     33                 6759     6759     981
     Sum        3783    3783   1033               216231   216231   31229

     Using Slab Decomposition



     bravais-lattice index     =            8
     lattice parameter (alat)  =       8.7287  a.u.
     unit-cell volume          =    1875.0496 (a.u.)^3
     number of atoms/cell      =           24
     number of atomic types    =            2
     number of electrons       =        64.00
     number of Kohn-Sham states=           32
     kinetic-energy cutoff     =      90.0000  Ry
     charge density cutoff     =     360.0000  Ry
     scf convergence threshold =      1.0E-07
     mixing beta               =       0.7000
     number of iterations used =            8  plain     mixing
     Exchange-correlation= VDW-DF2
                           (   1   4  13   0   2   0   0)

     celldm(1)=   8.728743  celldm(2)=   1.732119  celldm(3)=   1.627721
     celldm(4)=   0.000000  celldm(5)=   0.000000  celldm(6)=   0.000000

     crystal axes: (cart. coord. in units of alat)
               a(1) = (   1.000000   0.000000   0.000000 )  
               a(2) = (   0.000000   1.732119   0.000000 )  
               a(3) = (   0.000000   0.000000   1.627721 )  

     reciprocal axes: (cart. coord. in units 2 pi/alat)
               b(1) = (  1.000000  0.000000  0.000000 )  
               b(2) = (  0.000000  0.577328  0.000000 )  
               b(3) = (  0.000000  0.000000  0.614356 )  


     PseudoPot. # 1 for H  read from file:
     ./H.pbe-van_ak.UPF
     MD5 check sum: 077eb6d537518a38cb46c6de387227b7
     Pseudo is Ultrasoft, Zval =  1.0
     Generated by new atomic code, or converted to UPF format
     Using radial grid of  615 points,  1 beta functions with: 
                l(1) =   0
     Q(r) pseudized with  8 coefficients,  rinner =    0.800

     PseudoPot. # 2 for O  read from file:
     ./O.pbe-van_ak.UPF
     MD5 check sum: 78c19812648e8988a0fe644b0f25305e
     Pseudo is Ultrasoft, Zval =  6.0
     Generated by new atomic code, or converted to UPF format
     Using radial grid of  737 points,  4 beta functions with: 
                l(1) =   0
                l(2) =   0
                l(3) =   1
                l(4) =   1
     Q(r) pseudized with  8 coefficients,  rinner =    0.800   0.800   0.800


     atomic species   valence    mass     pseudopotential
     H                 1.00     1.00800     H ( 1.00)
     O                 6.00    16.00000     O ( 1.00)

      2 Sym. Ops. (no inversion) found



   Cartesian axes

     site n.     atom                  positions (alat units)
         1        O      tau(   1) = (   0.0000000   1.1505053   0.0983911  )
         2        O      tau(   2) = (   0.0000000   0.5816137   0.9122516  )
         3        O      tau(   3) = (   0.5000000   0.2844458   0.0983911  )
         4        O      tau(   4) = (   0.5000000   1.4476733   0.9122516  )
         5        O      tau(   5) = (   0.5000000   1.4413210   1.5245781  )
         6        O      tau(   6) = (   0.5000000   0.2907980   0.7107175  )
         7        O      tau(   7) = (   0.0000000   0.5752615   1.5245780  )
         8        O      tau(   8) = (   0.0000000   1.1568575   0.7107175  )
         9        H      tau(   9) = (   0.0000000   1.1476935   0.3199225  )
        10        H      tau(  10) = (   0.0000000   0.5844255   1.1337830  )
        11        H      tau(  11) = (   0.5000000   0.2816340   0.3199225  )
        12        H      tau(  12) = (   0.5000000   1.4504851   1.1337830  )
        13        H      tau(  13) = (   0.0000000   0.9389577   0.0320281  )
        14        H      tau(  14) = (   0.0000000   0.7931613   0.8458886  )
        15        H      tau(  15) = (   0.5000000   0.0728982   0.0320281  )
        16        H      tau(  16) = (   0.5000000   1.6592209   0.8458886  )
        17        H      tau(  17) = (   0.6777387   1.3318248   1.5989889  )
        18        H      tau(  18) = (   0.3222613   0.4002942   0.7851284  )
        19        H      tau(  19) = (   0.6777387   0.4002942   0.7851284  )
        20        H      tau(  20) = (   0.3222613   1.3318248   1.5989889  )
        21        H      tau(  21) = (   0.1777387   0.4657653   1.5989889  )
        22        H      tau(  22) = (   0.8222613   1.2663538   0.7851284  )
        23        H      tau(  23) = (   0.1777387   1.2663538   0.7851284  )
        24        H      tau(  24) = (   0.8222613   0.4657653   1.5989889  )

     number of k points=   460

     Number of k-points >= 100: set verbosity='high' to print them.

     Dense  grid:   216231 G-vectors     FFT dimensions: (  54,  96,  90)

     Estimated max dynamical RAM per process >      56.49 MB

     Estimated total dynamical RAM >       6.91 GB

     Initial potential from superposition of free atoms

     starting charge      63.9998, renormalised to      64.0000


     %%%%%%%%%%%%%%%%%%%%%%%%%%%%%%%%%%%%%%%%%%%%%%%%%%%%%%%%%%%%%%%%%%%%%%%%
     %                                                                      %
     % You are using vdW-DF, which was implemented by the Thonhauser group. %
     % Please cite the following two papers that made this development      %
     % possible and the two reviews that describe the various versions:     %
     %                                                                      %
     %   T. Thonhauser et al., PRL 115, 136402 (2015).                      %
     %   T. Thonhauser et al., PRB 76, 125112 (2007).                       %
     %   K. Berland et al., Rep. Prog. Phys. 78, 066501 (2015).             %
     %   D.C. Langreth et al., J. Phys.: Condens. Matter 21, 084203 (2009). %
     %                                                                      %
     % If you are calculating stress with vdW-DF, please also cite:         %
     %                                                                      %
     %   R. Sabatini et al., J. Phys.: Condens. Matter 24, 424209 (2012).   %
     %                                                                      %
     %%%%%%%%%%%%%%%%%%%%%%%%%%%%%%%%%%%%%%%%%%%%%%%%%%%%%%%%%%%%%%%%%%%%%%%%

     %%%%%%%%%%%%%%%%%%%%%%%%%%%%%%%%%%%%%%%%%%%%%%%%%%%%%%%%%%%%%%%%%%%%%%%%
     %                                                                      %
     %  vdW-DF NEWS:                                                        %
     %                                                                      %
     %  * vdW-DF3 is now available. DOI: 10.1021/acs.jctc.0c00471           %
     %    use with input_dft = 'vdW-DF3-opt1' or 'vdW-DF3-opt2'             %
     %                                                                      %
     %  * Unscreened and range-separated hybrid vdW-DF-cx functionals       %
     %    DOI: 10.1063/1.4986522 and 10.1088/1361-648X/ac2ad2               %
     %    use with input_dft = 'vdW-DF-cx0'    and 'vdW-DF-ahcx'            %
     %  * Unscreened and range-separated hybrid vdW-DF2-b86r functionals    %
     %    DOI: 10.1063/1.4986522 and DOI: 10.1103/PhysRevX.12.041003        %
     %    use with input_dft = 'vdW-DF2-br0' and 'vdW-DF2-ahbr'             %
     %                                                                      %
     %%%%%%%%%%%%%%%%%%%%%%%%%%%%%%%%%%%%%%%%%%%%%%%%%%%%%%%%%%%%%%%%%%%%%%%%


     Starting wfcs are   48 randomized atomic wfcs

     total cpu time spent up to now is        6.9 secs

     per-process dynamical memory:    64.0 Mb

     Self-consistent Calculation

     iteration #  1     ecut=    90.00 Ry     beta= 0.70
     Davidson diagonalization with overlap
     ethr =  1.00E-02,  avg # of iterations =  2.0

     total cpu time spent up to now is       16.6 secs

     total energy              =    -277.30119396 Ry
     estimated scf accuracy    <       3.06897088 Ry

     iteration #  2     ecut=    90.00 Ry     beta= 0.70
     Davidson diagonalization with overlap
     ethr =  4.80E-03,  avg # of iterations =  3.0

     total cpu time spent up to now is       29.7 secs

     total energy              =    -278.28665996 Ry
     estimated scf accuracy    <       2.41799309 Ry

     iteration #  3     ecut=    90.00 Ry     beta= 0.70
     Davidson diagonalization with overlap
     ethr =  3.78E-03,  avg # of iterations =  2.0

     total cpu time spent up to now is       39.6 secs

     total energy              =    -278.60688628 Ry
     estimated scf accuracy    <       0.10750312 Ry

     iteration #  4     ecut=    90.00 Ry     beta= 0.70
     Davidson diagonalization with overlap
     ethr =  1.68E-04,  avg # of iterations =  4.0

     total cpu time spent up to now is       54.5 secs

     total energy              =    -278.69055097 Ry
     estimated scf accuracy    <       0.12859277 Ry

     iteration #  5     ecut=    90.00 Ry     beta= 0.70
     Davidson diagonalization with overlap
     ethr =  1.68E-04,  avg # of iterations =  2.0

     total cpu time spent up to now is       62.6 secs

     total energy              =    -278.69158451 Ry
     estimated scf accuracy    <       0.02089802 Ry

     iteration #  6     ecut=    90.00 Ry     beta= 0.70
     Davidson diagonalization with overlap
     ethr =  3.27E-05,  avg # of iterations =  2.0

     negative rho (up, down):  4.075E-08 0.000E+00

     total cpu time spent up to now is       72.4 secs

     total energy              =    -278.69587638 Ry
     estimated scf accuracy    <       0.00094619 Ry

     iteration #  7     ecut=    90.00 Ry     beta= 0.70
     Davidson diagonalization with overlap
     ethr =  1.48E-06,  avg # of iterations =  3.9

     negative rho (up, down):  5.774E-08 0.000E+00

     total cpu time spent up to now is       84.8 secs

     total energy              =    -278.69693685 Ry
     estimated scf accuracy    <       0.00060548 Ry

     iteration #  8     ecut=    90.00 Ry     beta= 0.70
     Davidson diagonalization with overlap
     ethr =  9.46E-07,  avg # of iterations =  2.0

     negative rho (up, down):  1.859E-08 0.000E+00

     total cpu time spent up to now is       94.6 secs

     total energy              =    -278.69665216 Ry
     estimated scf accuracy    <       0.00166588 Ry

     iteration #  9     ecut=    90.00 Ry     beta= 0.70
     Davidson diagonalization with overlap
     ethr =  9.46E-07,  avg # of iterations =  1.0

     total cpu time spent up to now is      101.8 secs

     total energy              =    -278.69641510 Ry
     estimated scf accuracy    <       0.00079845 Ry

     iteration # 10     ecut=    90.00 Ry     beta= 0.70
     Davidson diagonalization with overlap
     ethr =  9.46E-07,  avg # of iterations =  2.0

     total cpu time spent up to now is      111.6 secs

     total energy              =    -278.69647618 Ry
     estimated scf accuracy    <       0.00010965 Ry

     iteration # 11     ecut=    90.00 Ry     beta= 0.70
     Davidson diagonalization with overlap
     ethr =  1.71E-07,  avg # of iterations =  1.0

     total cpu time spent up to now is      118.8 secs

     total energy              =    -278.69645620 Ry
     estimated scf accuracy    <       0.00005363 Ry

     iteration # 12     ecut=    90.00 Ry     beta= 0.70
     Davidson diagonalization with overlap
     ethr =  8.38E-08,  avg # of iterations =  2.0

     total cpu time spent up to now is      129.1 secs

     total energy              =    -278.69647270 Ry
     estimated scf accuracy    <       0.00000051 Ry

     iteration # 13     ecut=    90.00 Ry     beta= 0.70
     Davidson diagonalization with overlap
     ethr =  7.96E-10,  avg # of iterations =  5.1

     total cpu time spent up to now is      145.5 secs

     total energy              =    -278.69647022 Ry
     estimated scf accuracy    <       0.00000772 Ry

     iteration # 14     ecut=    90.00 Ry     beta= 0.70
     Davidson diagonalization with overlap
     ethr =  7.96E-10,  avg # of iterations =  5.0

     total cpu time spent up to now is      162.9 secs

     End of self-consistent calculation

     Number of k-points >= 100: set verbosity='high' to print the bands.

     highest occupied level (ev):    -4.1757

!    total energy              =    -278.69647172 Ry
     estimated scf accuracy    <       0.00000006 Ry

     The total energy is the sum of the following terms:
     one-electron contribution =    -243.62713180 Ry
     hartree contribution      =     142.02324561 Ry
     xc contribution           =     -70.14052167 Ry
     ewald contribution        =    -106.95206386 Ry

     convergence has been achieved in  14 iterations

     Forces acting on atoms (cartesian axes, Ry/au):

     atom    1 type  2   force =     0.00000000   -0.03122002    0.02258590
     atom    2 type  2   force =     0.00000000    0.03121995    0.02258595
     atom    3 type  2   force =     0.00000000   -0.03121956    0.02258554
     atom    4 type  2   force =     0.00000000    0.03121914    0.02258536
     atom    5 type  2   force =     0.00000000   -0.03236595    0.02121769
     atom    6 type  2   force =     0.00000000    0.03236612    0.02121768
     atom    7 type  2   force =     0.00000000   -0.03236627    0.02121793
     atom    8 type  2   force =     0.00000000    0.03236676    0.02121808
     atom    9 type  1   force =     0.00000000   -0.00117492   -0.03561666
     atom   10 type  1   force =     0.00000000    0.00117488   -0.03561679
     atom   11 type  1   force =     0.00000000   -0.00117491   -0.03561694
     atom   12 type  1   force =     0.00000000    0.00117484   -0.03561709
     atom   13 type  1   force =     0.00000000    0.03310240    0.01289439
     atom   14 type  1   force =     0.00000000   -0.03310226    0.01289432
     atom   15 type  1   force =     0.00000000    0.03310257    0.01289441
     atom   16 type  1   force =     0.00000000   -0.03310266    0.01289441
     atom   17 type  1   force =    -0.03003575    0.01561308   -0.01054053
     atom   18 type  1   force =     0.03003572   -0.01561312   -0.01054053
     atom   19 type  1   force =    -0.03003572   -0.01561312   -0.01054053
     atom   20 type  1   force =     0.03003575    0.01561308   -0.01054053
     atom   21 type  1   force =    -0.03003575    0.01561305   -0.01054053
     atom   22 type  1   force =     0.03003571   -0.01561307   -0.01054050
     atom   23 type  1   force =    -0.03003571   -0.01561307   -0.01054050
     atom   24 type  1   force =     0.03003575    0.01561305   -0.01054053

     Total force =     0.179205     Total SCF correction =     0.000379


     Computing stress (Cartesian axis) and pressure

          total   stress  (Ry/bohr**3)                   (kbar)     P=      -40.47
  -0.00028170   0.00000000   0.00000000          -41.44        0.00        0.00
   0.00000000  -0.00027141   0.00000000            0.00      -39.93        0.00
   0.00000000   0.00000000  -0.00027221            0.00        0.00      -40.04


     Writing all to output data dir ./iceIh/iceIh.save/ :
     XML data file, charge density, pseudopotentials, collected wavefunctions

     init_run     :      6.56s CPU      6.69s WALL (       1 calls)
     electrons    :    153.97s CPU    156.03s WALL (       1 calls)
     forces       :      0.65s CPU      0.66s WALL (       1 calls)
     stress       :      9.70s CPU      9.73s WALL (       1 calls)

     Called by init_run:
     wfcinit      :      4.40s CPU      4.45s WALL (       1 calls)
     potinit      :      1.58s CPU      1.62s WALL (       1 calls)
     hinit0       :      0.48s CPU      0.50s WALL (       1 calls)

     Called by electrons:
     c_bands      :    136.01s CPU    137.75s WALL (      14 calls)
     sum_band     :     16.84s CPU     16.98s WALL (      14 calls)
     v_of_rho     :      2.55s CPU      2.70s WALL (      15 calls)
     newd         :      0.05s CPU      0.06s WALL (      15 calls)
     mix_rho      :      0.04s CPU      0.04s WALL (      14 calls)
     vdW_kernel   :      1.50s CPU      1.52s WALL (       1 calls)

     Called by c_bands:
     init_us_2    :      2.21s CPU      2.28s WALL (    3565 calls)
     cegterg      :    131.87s CPU    132.89s WALL (    1610 calls)

     Called by *egterg:
     cdiaghg      :     10.15s CPU     10.19s WALL (    5879 calls)
     h_psi        :    103.01s CPU    103.95s WALL (    5994 calls)
     s_psi        :      4.17s CPU      4.20s WALL (    5994 calls)
     g_psi        :      0.39s CPU      0.39s WALL (    4269 calls)

     Called by h_psi:
     h_psi:calbec :      7.14s CPU      7.19s WALL (    5994 calls)
     vloc_psi     :     90.60s CPU     91.43s WALL (    5994 calls)
     add_vuspsi   :      4.42s CPU      4.45s WALL (    5994 calls)

     General routines
     calbec       :      9.16s CPU      9.23s WALL (    8179 calls)
     fft          :      1.01s CPU      1.02s WALL (     967 calls)
     ffts         :      0.01s CPU      0.01s WALL (      14 calls)
     fftw         :     94.03s CPU     94.85s WALL (  383796 calls)

     Parallel routines

     PWSCF        :   2m53.93s CPU   3m 2.21s WALL


   This run was terminated on:  18: 8:33  26Mar2026            

=------------------------------------------------------------------------------=
   JOB DONE.
=------------------------------------------------------------------------------=
