
     Program PWSCF v.7.3.1 starts on 26Mar2026 at 18: 8:36 

     This program is part of the open-source Quantum ESPRESSO suite
     for quantum simulation of materials; please cite
         "P. Giannozzi et al., J. Phys.:Condens. Matter 21 395502 (2009);
         "P. Giannozzi et al., J. Phys.:Condens. Matter 29 465901 (2017);
         "P. Giannozzi et al., J. Chem. Phys. 152 154105 (2020);
          URL http://www.quantum-espresso.org", 
     in publications or presentations arising from this work. More details at
     http://www.quantum-espresso.org/quote

     Parallel version (MPI), running on   128 processors

     MPI processes distributed on     1 nodes
     236161 MiB available memory on the printing compute node when the environment starts

     Waiting for input...
     Reading input from standard input

     Current dimensions of program PWSCF are:
     Max number of different atomic species (ntypx) = 10
     Max number of k-points (npk) =  40000
     Max angular momentum in pseudopotentials (lmaxx) =  4

     IMPORTANT: XC functional enforced from input :
     Exchange-correlation= VDW-DF2
                           (   1   4  13   0   2   0   0)
     Any further DFT definition will be discarded
     Please, verify this is what you really want

     Found identity + ( -0.5000 -0.5000 -0.0000) symmetry
     This is a supercell, fractional translations are disabled

     K-points division:     npool     =       4
     R & G space division:  proc/nbgrp/npool/nimage =      32
     Subspace diagonalization in iterative solution of the eigenvalue problem:
     a serial algorithm will be used


     Parallelization info
     --------------------
     sticks:   dense  smooth     PW     G-vecs:    dense   smooth      PW
     Min         118     118     32                 6794     6794     978
     Max         119     119     33                 6799     6799     985
     Sum        3799    3799   1033               217451   217451   31337

     Using Slab Decomposition



     bravais-lattice index     =            8
     lattice parameter (alat)  =       8.7458  a.u.
     unit-cell volume          =    1886.0362 (a.u.)^3
     number of atoms/cell      =           24
     number of atomic types    =            2
     number of electrons       =        64.00
     number of Kohn-Sham states=           32
     kinetic-energy cutoff     =      90.0000  Ry
     charge density cutoff     =     360.0000  Ry
     scf convergence threshold =      1.0E-07
     mixing beta               =       0.7000
     number of iterations used =            8  plain     mixing
     Exchange-correlation= VDW-DF2
                           (   1   4  13   0   2   0   0)

     celldm(1)=   8.745758  celldm(2)=   1.732119  celldm(3)=   1.627721
     celldm(4)=   0.000000  celldm(5)=   0.000000  celldm(6)=   0.000000

     crystal axes: (cart. coord. in units of alat)
               a(1) = (   1.000000   0.000000   0.000000 )  
               a(2) = (   0.000000   1.732119   0.000000 )  
               a(3) = (   0.000000   0.000000   1.627721 )  

     reciprocal axes: (cart. coord. in units 2 pi/alat)
               b(1) = (  1.000000  0.000000  0.000000 )  
               b(2) = (  0.000000  0.577328  0.000000 )  
               b(3) = (  0.000000  0.000000  0.614356 )  


     PseudoPot. # 1 for H  read from file:
     ./H.pbe-van_ak.UPF
     MD5 check sum: 077eb6d537518a38cb46c6de387227b7
     Pseudo is Ultrasoft, Zval =  1.0
     Generated by new atomic code, or converted to UPF format
     Using radial grid of  615 points,  1 beta functions with: 
                l(1) =   0
     Q(r) pseudized with  8 coefficients,  rinner =    0.800

     PseudoPot. # 2 for O  read from file:
     ./O.pbe-van_ak.UPF
     MD5 check sum: 78c19812648e8988a0fe644b0f25305e
     Pseudo is Ultrasoft, Zval =  6.0
     Generated by new atomic code, or converted to UPF format
     Using radial grid of  737 points,  4 beta functions with: 
                l(1) =   0
                l(2) =   0
                l(3) =   1
                l(4) =   1
     Q(r) pseudized with  8 coefficients,  rinner =    0.800   0.800   0.800


     atomic species   valence    mass     pseudopotential
     H                 1.00     1.00800     H ( 1.00)
     O                 6.00    16.00000     O ( 1.00)

      2 Sym. Ops. (no inversion) found



   Cartesian axes

     site n.     atom                  positions (alat units)
         1        O      tau(   1) = (   0.0000000   1.1505053   0.0983911  )
         2        O      tau(   2) = (   0.0000000   0.5816137   0.9122516  )
         3        O      tau(   3) = (   0.5000000   0.2844458   0.0983911  )
         4        O      tau(   4) = (   0.5000000   1.4476733   0.9122516  )
         5        O      tau(   5) = (   0.5000000   1.4413210   1.5245781  )
         6        O      tau(   6) = (   0.5000000   0.2907980   0.7107175  )
         7        O      tau(   7) = (   0.0000000   0.5752615   1.5245780  )
         8        O      tau(   8) = (   0.0000000   1.1568575   0.7107175  )
         9        H      tau(   9) = (   0.0000000   1.1476935   0.3199225  )
        10        H      tau(  10) = (   0.0000000   0.5844255   1.1337830  )
        11        H      tau(  11) = (   0.5000000   0.2816340   0.3199225  )
        12        H      tau(  12) = (   0.5000000   1.4504851   1.1337830  )
        13        H      tau(  13) = (   0.0000000   0.9389577   0.0320281  )
        14        H      tau(  14) = (   0.0000000   0.7931613   0.8458886  )
        15        H      tau(  15) = (   0.5000000   0.0728982   0.0320281  )
        16        H      tau(  16) = (   0.5000000   1.6592209   0.8458886  )
        17        H      tau(  17) = (   0.6777387   1.3318248   1.5989889  )
        18        H      tau(  18) = (   0.3222613   0.4002942   0.7851284  )
        19        H      tau(  19) = (   0.6777387   0.4002942   0.7851284  )
        20        H      tau(  20) = (   0.3222613   1.3318248   1.5989889  )
        21        H      tau(  21) = (   0.1777387   0.4657653   1.5989889  )
        22        H      tau(  22) = (   0.8222613   1.2663538   0.7851284  )
        23        H      tau(  23) = (   0.1777387   1.2663538   0.7851284  )
        24        H      tau(  24) = (   0.8222613   0.4657653   1.5989889  )

     number of k points=   460

     Number of k-points >= 100: set verbosity='high' to print them.

     Dense  grid:   217451 G-vectors     FFT dimensions: (  54,  96,  90)

     Estimated max dynamical RAM per process >      56.81 MB

     Estimated total dynamical RAM >       6.95 GB

     Initial potential from superposition of free atoms

     starting charge      63.9998, renormalised to      64.0000


     %%%%%%%%%%%%%%%%%%%%%%%%%%%%%%%%%%%%%%%%%%%%%%%%%%%%%%%%%%%%%%%%%%%%%%%%
     %                                                                      %
     % You are using vdW-DF, which was implemented by the Thonhauser group. %
     % Please cite the following two papers that made this development      %
     % possible and the two reviews that describe the various versions:     %
     %                                                                      %
     %   T. Thonhauser et al., PRL 115, 136402 (2015).                      %
     %   T. Thonhauser et al., PRB 76, 125112 (2007).                       %
     %   K. Berland et al., Rep. Prog. Phys. 78, 066501 (2015).             %
     %   D.C. Langreth et al., J. Phys.: Condens. Matter 21, 084203 (2009). %
     %                                                                      %
     % If you are calculating stress with vdW-DF, please also cite:         %
     %                                                                      %
     %   R. Sabatini et al., J. Phys.: Condens. Matter 24, 424209 (2012).   %
     %                                                                      %
     %%%%%%%%%%%%%%%%%%%%%%%%%%%%%%%%%%%%%%%%%%%%%%%%%%%%%%%%%%%%%%%%%%%%%%%%

     %%%%%%%%%%%%%%%%%%%%%%%%%%%%%%%%%%%%%%%%%%%%%%%%%%%%%%%%%%%%%%%%%%%%%%%%
     %                                                                      %
     %  vdW-DF NEWS:                                                        %
     %                                                                      %
     %  * vdW-DF3 is now available. DOI: 10.1021/acs.jctc.0c00471           %
     %    use with input_dft = 'vdW-DF3-opt1' or 'vdW-DF3-opt2'             %
     %                                                                      %
     %  * Unscreened and range-separated hybrid vdW-DF-cx functionals       %
     %    DOI: 10.1063/1.4986522 and 10.1088/1361-648X/ac2ad2               %
     %    use with input_dft = 'vdW-DF-cx0'    and 'vdW-DF-ahcx'            %
     %  * Unscreened and range-separated hybrid vdW-DF2-b86r functionals    %
     %    DOI: 10.1063/1.4986522 and DOI: 10.1103/PhysRevX.12.041003        %
     %    use with input_dft = 'vdW-DF2-br0' and 'vdW-DF2-ahbr'             %
     %                                                                      %
     %%%%%%%%%%%%%%%%%%%%%%%%%%%%%%%%%%%%%%%%%%%%%%%%%%%%%%%%%%%%%%%%%%%%%%%%


     Starting wfcs are   48 randomized atomic wfcs

     total cpu time spent up to now is        7.0 secs

     per-process dynamical memory:    64.9 Mb

     Self-consistent Calculation

     iteration #  1     ecut=    90.00 Ry     beta= 0.70
     Davidson diagonalization with overlap
     ethr =  1.00E-02,  avg # of iterations =  2.0

     total cpu time spent up to now is       16.8 secs

     total energy              =    -277.29948434 Ry
     estimated scf accuracy    <       3.06188562 Ry

     iteration #  2     ecut=    90.00 Ry     beta= 0.70
     Davidson diagonalization with overlap
     ethr =  4.78E-03,  avg # of iterations =  3.0

     total cpu time spent up to now is       29.8 secs

     total energy              =    -278.28217113 Ry
     estimated scf accuracy    <       2.43017823 Ry

     iteration #  3     ecut=    90.00 Ry     beta= 0.70
     Davidson diagonalization with overlap
     ethr =  3.80E-03,  avg # of iterations =  2.0

     total cpu time spent up to now is       39.7 secs

     total energy              =    -278.60317094 Ry
     estimated scf accuracy    <       0.10872662 Ry

     iteration #  4     ecut=    90.00 Ry     beta= 0.70
     Davidson diagonalization with overlap
     ethr =  1.70E-04,  avg # of iterations =  4.0

     total cpu time spent up to now is       54.5 secs

     total energy              =    -278.68775284 Ry
     estimated scf accuracy    <       0.12923553 Ry

     iteration #  5     ecut=    90.00 Ry     beta= 0.70
     Davidson diagonalization with overlap
     ethr =  1.70E-04,  avg # of iterations =  2.0

     total cpu time spent up to now is       62.6 secs

     total energy              =    -278.68875165 Ry
     estimated scf accuracy    <       0.02110749 Ry

     iteration #  6     ecut=    90.00 Ry     beta= 0.70
     Davidson diagonalization with overlap
     ethr =  3.30E-05,  avg # of iterations =  2.0

     total cpu time spent up to now is       72.5 secs

     total energy              =    -278.69306082 Ry
     estimated scf accuracy    <       0.00095656 Ry

     iteration #  7     ecut=    90.00 Ry     beta= 0.70
     Davidson diagonalization with overlap
     ethr =  1.49E-06,  avg # of iterations =  3.9

     total cpu time spent up to now is       85.0 secs

     total energy              =    -278.69412048 Ry
     estimated scf accuracy    <       0.00060923 Ry

     iteration #  8     ecut=    90.00 Ry     beta= 0.70
     Davidson diagonalization with overlap
     ethr =  9.52E-07,  avg # of iterations =  2.0

     total cpu time spent up to now is       94.7 secs

     total energy              =    -278.69383320 Ry
     estimated scf accuracy    <       0.00165097 Ry

     iteration #  9     ecut=    90.00 Ry     beta= 0.70
     Davidson diagonalization with overlap
     ethr =  9.52E-07,  avg # of iterations =  1.0

     total cpu time spent up to now is      102.0 secs

     total energy              =    -278.69360508 Ry
     estimated scf accuracy    <       0.00078121 Ry

     iteration # 10     ecut=    90.00 Ry     beta= 0.70
     Davidson diagonalization with overlap
     ethr =  9.52E-07,  avg # of iterations =  2.0

     total cpu time spent up to now is      111.7 secs

     total energy              =    -278.69366781 Ry
     estimated scf accuracy    <       0.00010707 Ry

     iteration # 11     ecut=    90.00 Ry     beta= 0.70
     Davidson diagonalization with overlap
     ethr =  1.67E-07,  avg # of iterations =  1.0

     total cpu time spent up to now is      119.1 secs

     total energy              =    -278.69364503 Ry
     estimated scf accuracy    <       0.00006042 Ry

     iteration # 12     ecut=    90.00 Ry     beta= 0.70
     Davidson diagonalization with overlap
     ethr =  9.44E-08,  avg # of iterations =  2.0

     total cpu time spent up to now is      129.2 secs

     total energy              =    -278.69366029 Ry
     estimated scf accuracy    <       0.00000024 Ry

     iteration # 13     ecut=    90.00 Ry     beta= 0.70
     Davidson diagonalization with overlap
     ethr =  3.80E-10,  avg # of iterations =  6.8

     total cpu time spent up to now is      150.0 secs

     total energy              =    -278.69365828 Ry
     estimated scf accuracy    <       0.00000897 Ry

     iteration # 14     ecut=    90.00 Ry     beta= 0.70
     Davidson diagonalization with overlap
     ethr =  3.80E-10,  avg # of iterations =  5.9

     total cpu time spent up to now is      169.5 secs

     End of self-consistent calculation

     Number of k-points >= 100: set verbosity='high' to print the bands.

     highest occupied level (ev):    -4.1964

!    total energy              =    -278.69365998 Ry
     estimated scf accuracy    <       0.00000007 Ry

     The total energy is the sum of the following terms:
     one-electron contribution =    -244.01378344 Ry
     hartree contribution      =     142.17179409 Ry
     xc contribution           =     -70.10768471 Ry
     ewald contribution        =    -106.74398592 Ry

     convergence has been achieved in  14 iterations

     Forces acting on atoms (cartesian axes, Ry/au):

     atom    1 type  2   force =     0.00000000   -0.03314869    0.02418581
     atom    2 type  2   force =     0.00000000    0.03314898    0.02418622
     atom    3 type  2   force =     0.00000000   -0.03314872    0.02418590
     atom    4 type  2   force =     0.00000000    0.03314828    0.02418563
     atom    5 type  2   force =     0.00000000   -0.03432747    0.02270604
     atom    6 type  2   force =     0.00000000    0.03432724    0.02270596
     atom    7 type  2   force =     0.00000000   -0.03432729    0.02270599
     atom    8 type  2   force =     0.00000000    0.03432761    0.02270612
     atom    9 type  1   force =     0.00000000   -0.00127496   -0.03808198
     atom   10 type  1   force =     0.00000000    0.00127497   -0.03808201
     atom   11 type  1   force =     0.00000000   -0.00127495   -0.03808204
     atom   12 type  1   force =     0.00000000    0.00127494   -0.03808214
     atom   13 type  1   force =     0.00000000    0.03538433    0.01378989
     atom   14 type  1   force =     0.00000000   -0.03538414    0.01378984
     atom   15 type  1   force =     0.00000000    0.03538427    0.01378986
     atom   16 type  1   force =     0.00000000   -0.03538441    0.01378991
     atom   17 type  1   force =    -0.03212926    0.01671488   -0.01129986
     atom   18 type  1   force =     0.03212927   -0.01671489   -0.01129986
     atom   19 type  1   force =    -0.03212927   -0.01671489   -0.01129986
     atom   20 type  1   force =     0.03212926    0.01671488   -0.01129986
     atom   21 type  1   force =    -0.03212931    0.01671492   -0.01129989
     atom   22 type  1   force =     0.03212931   -0.01671490   -0.01129988
     atom   23 type  1   force =    -0.03212931   -0.01671490   -0.01129988
     atom   24 type  1   force =     0.03212931    0.01671492   -0.01129989

     Total force =     0.191317     Total SCF correction =     0.000296


     Computing stress (Cartesian axis) and pressure

          total   stress  (Ry/bohr**3)                   (kbar)     P=      -43.21
  -0.00030025   0.00000000   0.00000000          -44.17        0.00        0.00
   0.00000000  -0.00029018   0.00000000            0.00      -42.69        0.00
   0.00000000   0.00000000  -0.00029079            0.00        0.00      -42.78


     Writing all to output data dir ./iceIh/iceIh.save/ :
     XML data file, charge density, pseudopotentials, collected wavefunctions

     init_run     :      6.50s CPU      6.65s WALL (       1 calls)
     electrons    :    160.29s CPU    162.62s WALL (       1 calls)
     forces       :      0.74s CPU      0.76s WALL (       1 calls)
     stress       :      9.79s CPU      9.83s WALL (       1 calls)

     Called by init_run:
     wfcinit      :      4.33s CPU      4.43s WALL (       1 calls)
     potinit      :      1.58s CPU      1.62s WALL (       1 calls)
     hinit0       :      0.49s CPU      0.49s WALL (       1 calls)

     Called by electrons:
     c_bands      :    142.38s CPU    144.37s WALL (      14 calls)
     sum_band     :     16.80s CPU     16.95s WALL (      14 calls)
     v_of_rho     :      2.57s CPU      2.70s WALL (      15 calls)
     newd         :      0.04s CPU      0.05s WALL (      15 calls)
     mix_rho      :      0.04s CPU      0.04s WALL (      14 calls)
     vdW_kernel   :      1.52s CPU      1.52s WALL (       1 calls)

     Called by c_bands:
     init_us_2    :      2.23s CPU      2.31s WALL (    3565 calls)
     cegterg      :    138.23s CPU    139.45s WALL (    1610 calls)

     Called by *egterg:
     cdiaghg      :     10.80s CPU     10.83s WALL (    6182 calls)
     h_psi        :    107.19s CPU    108.36s WALL (    6297 calls)
     s_psi        :      4.36s CPU      4.38s WALL (    6297 calls)
     g_psi        :      0.41s CPU      0.42s WALL (    4572 calls)

     Called by h_psi:
     h_psi:calbec :      7.56s CPU      7.62s WALL (    6297 calls)
     vloc_psi     :     94.10s CPU     95.15s WALL (    6297 calls)
     add_vuspsi   :      4.63s CPU      4.67s WALL (    6297 calls)

     General routines
     calbec       :      9.63s CPU      9.71s WALL (    8482 calls)
     fft          :      0.99s CPU      1.02s WALL (     967 calls)
     ffts         :      0.01s CPU      0.01s WALL (      14 calls)
     fftw         :     97.24s CPU     98.25s WALL (  397258 calls)

     Parallel routines

     PWSCF        :   3m 0.78s CPU   3m 9.20s WALL


   This run was terminated on:  18:11:46  26Mar2026            

=------------------------------------------------------------------------------=
   JOB DONE.
=------------------------------------------------------------------------------=
