
     Program PWSCF v.7.3.1 starts on 26Mar2026 at 18:14:58 

     This program is part of the open-source Quantum ESPRESSO suite
     for quantum simulation of materials; please cite
         "P. Giannozzi et al., J. Phys.:Condens. Matter 21 395502 (2009);
         "P. Giannozzi et al., J. Phys.:Condens. Matter 29 465901 (2017);
         "P. Giannozzi et al., J. Chem. Phys. 152 154105 (2020);
          URL http://www.quantum-espresso.org", 
     in publications or presentations arising from this work. More details at
     http://www.quantum-espresso.org/quote

     Parallel version (MPI), running on   128 processors

     MPI processes distributed on     1 nodes
     236044 MiB available memory on the printing compute node when the environment starts

     Waiting for input...
     Reading input from standard input

     Current dimensions of program PWSCF are:
     Max number of different atomic species (ntypx) = 10
     Max number of k-points (npk) =  40000
     Max angular momentum in pseudopotentials (lmaxx) =  4

     IMPORTANT: XC functional enforced from input :
     Exchange-correlation= VDW-DF2
                           (   1   4  13   0   2   0   0)
     Any further DFT definition will be discarded
     Please, verify this is what you really want

     Found identity + ( -0.5000 -0.5000 -0.0000) symmetry
     This is a supercell, fractional translations are disabled

     K-points division:     npool     =       4
     R & G space division:  proc/nbgrp/npool/nimage =      32
     Subspace diagonalization in iterative solution of the eigenvalue problem:
     a serial algorithm will be used


     Parallelization info
     --------------------
     sticks:   dense  smooth     PW     G-vecs:    dense   smooth      PW
     Min         119     119     32                 6875     6875     986
     Max         120     120     33                 6879     6879     995
     Sum        3823    3823   1047               220061   220061   31659

     Using Slab Decomposition



     bravais-lattice index     =            8
     lattice parameter (alat)  =       8.7798  a.u.
     unit-cell volume          =    1908.1380 (a.u.)^3
     number of atoms/cell      =           24
     number of atomic types    =            2
     number of electrons       =        64.00
     number of Kohn-Sham states=           32
     kinetic-energy cutoff     =      90.0000  Ry
     charge density cutoff     =     360.0000  Ry
     scf convergence threshold =      1.0E-07
     mixing beta               =       0.7000
     number of iterations used =            8  plain     mixing
     Exchange-correlation= VDW-DF2
                           (   1   4  13   0   2   0   0)

     celldm(1)=   8.779788  celldm(2)=   1.732119  celldm(3)=   1.627721
     celldm(4)=   0.000000  celldm(5)=   0.000000  celldm(6)=   0.000000

     crystal axes: (cart. coord. in units of alat)
               a(1) = (   1.000000   0.000000   0.000000 )  
               a(2) = (   0.000000   1.732119   0.000000 )  
               a(3) = (   0.000000   0.000000   1.627721 )  

     reciprocal axes: (cart. coord. in units 2 pi/alat)
               b(1) = (  1.000000  0.000000  0.000000 )  
               b(2) = (  0.000000  0.577328  0.000000 )  
               b(3) = (  0.000000  0.000000  0.614356 )  


     PseudoPot. # 1 for H  read from file:
     ./H.pbe-van_ak.UPF
     MD5 check sum: 077eb6d537518a38cb46c6de387227b7
     Pseudo is Ultrasoft, Zval =  1.0
     Generated by new atomic code, or converted to UPF format
     Using radial grid of  615 points,  1 beta functions with: 
                l(1) =   0
     Q(r) pseudized with  8 coefficients,  rinner =    0.800

     PseudoPot. # 2 for O  read from file:
     ./O.pbe-van_ak.UPF
     MD5 check sum: 78c19812648e8988a0fe644b0f25305e
     Pseudo is Ultrasoft, Zval =  6.0
     Generated by new atomic code, or converted to UPF format
     Using radial grid of  737 points,  4 beta functions with: 
                l(1) =   0
                l(2) =   0
                l(3) =   1
                l(4) =   1
     Q(r) pseudized with  8 coefficients,  rinner =    0.800   0.800   0.800


     atomic species   valence    mass     pseudopotential
     H                 1.00     1.00800     H ( 1.00)
     O                 6.00    16.00000     O ( 1.00)

      2 Sym. Ops. (no inversion) found



   Cartesian axes

     site n.     atom                  positions (alat units)
         1        O      tau(   1) = (   0.0000000   1.1505053   0.0983911  )
         2        O      tau(   2) = (   0.0000000   0.5816137   0.9122516  )
         3        O      tau(   3) = (   0.5000000   0.2844458   0.0983911  )
         4        O      tau(   4) = (   0.5000000   1.4476733   0.9122516  )
         5        O      tau(   5) = (   0.5000000   1.4413210   1.5245781  )
         6        O      tau(   6) = (   0.5000000   0.2907980   0.7107175  )
         7        O      tau(   7) = (   0.0000000   0.5752615   1.5245780  )
         8        O      tau(   8) = (   0.0000000   1.1568575   0.7107175  )
         9        H      tau(   9) = (   0.0000000   1.1476935   0.3199225  )
        10        H      tau(  10) = (   0.0000000   0.5844255   1.1337830  )
        11        H      tau(  11) = (   0.5000000   0.2816340   0.3199225  )
        12        H      tau(  12) = (   0.5000000   1.4504851   1.1337830  )
        13        H      tau(  13) = (   0.0000000   0.9389577   0.0320281  )
        14        H      tau(  14) = (   0.0000000   0.7931613   0.8458886  )
        15        H      tau(  15) = (   0.5000000   0.0728982   0.0320281  )
        16        H      tau(  16) = (   0.5000000   1.6592209   0.8458886  )
        17        H      tau(  17) = (   0.6777387   1.3318248   1.5989889  )
        18        H      tau(  18) = (   0.3222613   0.4002942   0.7851284  )
        19        H      tau(  19) = (   0.6777387   0.4002942   0.7851284  )
        20        H      tau(  20) = (   0.3222613   1.3318248   1.5989889  )
        21        H      tau(  21) = (   0.1777387   0.4657653   1.5989889  )
        22        H      tau(  22) = (   0.8222613   1.2663538   0.7851284  )
        23        H      tau(  23) = (   0.1777387   1.2663538   0.7851284  )
        24        H      tau(  24) = (   0.8222613   0.4657653   1.5989889  )

     number of k points=   460

     Number of k-points >= 100: set verbosity='high' to print them.

     Dense  grid:   220061 G-vectors     FFT dimensions: (  54,  96,  90)

     Estimated max dynamical RAM per process >      57.45 MB

     Estimated total dynamical RAM >       7.02 GB

     Initial potential from superposition of free atoms

     starting charge      63.9998, renormalised to      64.0000


     %%%%%%%%%%%%%%%%%%%%%%%%%%%%%%%%%%%%%%%%%%%%%%%%%%%%%%%%%%%%%%%%%%%%%%%%
     %                                                                      %
     % You are using vdW-DF, which was implemented by the Thonhauser group. %
     % Please cite the following two papers that made this development      %
     % possible and the two reviews that describe the various versions:     %
     %                                                                      %
     %   T. Thonhauser et al., PRL 115, 136402 (2015).                      %
     %   T. Thonhauser et al., PRB 76, 125112 (2007).                       %
     %   K. Berland et al., Rep. Prog. Phys. 78, 066501 (2015).             %
     %   D.C. Langreth et al., J. Phys.: Condens. Matter 21, 084203 (2009). %
     %                                                                      %
     % If you are calculating stress with vdW-DF, please also cite:         %
     %                                                                      %
     %   R. Sabatini et al., J. Phys.: Condens. Matter 24, 424209 (2012).   %
     %                                                                      %
     %%%%%%%%%%%%%%%%%%%%%%%%%%%%%%%%%%%%%%%%%%%%%%%%%%%%%%%%%%%%%%%%%%%%%%%%

     %%%%%%%%%%%%%%%%%%%%%%%%%%%%%%%%%%%%%%%%%%%%%%%%%%%%%%%%%%%%%%%%%%%%%%%%
     %                                                                      %
     %  vdW-DF NEWS:                                                        %
     %                                                                      %
     %  * vdW-DF3 is now available. DOI: 10.1021/acs.jctc.0c00471           %
     %    use with input_dft = 'vdW-DF3-opt1' or 'vdW-DF3-opt2'             %
     %                                                                      %
     %  * Unscreened and range-separated hybrid vdW-DF-cx functionals       %
     %    DOI: 10.1063/1.4986522 and 10.1088/1361-648X/ac2ad2               %
     %    use with input_dft = 'vdW-DF-cx0'    and 'vdW-DF-ahcx'            %
     %  * Unscreened and range-separated hybrid vdW-DF2-b86r functionals    %
     %    DOI: 10.1063/1.4986522 and DOI: 10.1103/PhysRevX.12.041003        %
     %    use with input_dft = 'vdW-DF2-br0' and 'vdW-DF2-ahbr'             %
     %                                                                      %
     %%%%%%%%%%%%%%%%%%%%%%%%%%%%%%%%%%%%%%%%%%%%%%%%%%%%%%%%%%%%%%%%%%%%%%%%


     Starting wfcs are   48 randomized atomic wfcs

     total cpu time spent up to now is        7.0 secs

     per-process dynamical memory:    65.2 Mb

     Self-consistent Calculation

     iteration #  1     ecut=    90.00 Ry     beta= 0.70
     Davidson diagonalization with overlap
     ethr =  1.00E-02,  avg # of iterations =  2.0

     negative rho (up, down):  3.623E-07 0.000E+00

     total cpu time spent up to now is       16.9 secs

     total energy              =    -277.29495197 Ry
     estimated scf accuracy    <       3.04820639 Ry

     iteration #  2     ecut=    90.00 Ry     beta= 0.70
     Davidson diagonalization with overlap
     ethr =  4.76E-03,  avg # of iterations =  3.0

     negative rho (up, down):  8.905E-08 0.000E+00

     total cpu time spent up to now is       30.0 secs

     total energy              =    -278.27226562 Ry
     estimated scf accuracy    <       2.45520721 Ry

     iteration #  3     ecut=    90.00 Ry     beta= 0.70
     Davidson diagonalization with overlap
     ethr =  3.84E-03,  avg # of iterations =  2.0

     negative rho (up, down):  1.928E-07 0.000E+00

     total cpu time spent up to now is       40.0 secs

     total energy              =    -278.59486257 Ry
     estimated scf accuracy    <       0.11125111 Ry

     iteration #  4     ecut=    90.00 Ry     beta= 0.70
     Davidson diagonalization with overlap
     ethr =  1.74E-04,  avg # of iterations =  4.0

     negative rho (up, down):  5.291E-07 0.000E+00

     total cpu time spent up to now is       55.0 secs

     total energy              =    -278.68132258 Ry
     estimated scf accuracy    <       0.13049284 Ry

     iteration #  5     ecut=    90.00 Ry     beta= 0.70
     Davidson diagonalization with overlap
     ethr =  1.74E-04,  avg # of iterations =  2.0

     negative rho (up, down):  7.463E-07 0.000E+00

     total cpu time spent up to now is       63.1 secs

     total energy              =    -278.68223060 Ry
     estimated scf accuracy    <       0.02153625 Ry

     iteration #  6     ecut=    90.00 Ry     beta= 0.70
     Davidson diagonalization with overlap
     ethr =  3.37E-05,  avg # of iterations =  2.0

     negative rho (up, down):  8.054E-07 0.000E+00

     total cpu time spent up to now is       73.1 secs

     total energy              =    -278.68660518 Ry
     estimated scf accuracy    <       0.00096527 Ry

     iteration #  7     ecut=    90.00 Ry     beta= 0.70
     Davidson diagonalization with overlap
     ethr =  1.51E-06,  avg # of iterations =  3.9

     negative rho (up, down):  8.215E-07 0.000E+00

     total cpu time spent up to now is       85.5 secs

     total energy              =    -278.68762190 Ry
     estimated scf accuracy    <       0.00058378 Ry

     iteration #  8     ecut=    90.00 Ry     beta= 0.70
     Davidson diagonalization with overlap
     ethr =  9.12E-07,  avg # of iterations =  2.0

     negative rho (up, down):  7.800E-07 0.000E+00

     total cpu time spent up to now is       95.3 secs

     total energy              =    -278.68737644 Ry
     estimated scf accuracy    <       0.00152329 Ry

     iteration #  9     ecut=    90.00 Ry     beta= 0.70
     Davidson diagonalization with overlap
     ethr =  9.12E-07,  avg # of iterations =  1.0

     negative rho (up, down):  7.493E-07 0.000E+00

     total cpu time spent up to now is      102.6 secs

     total energy              =    -278.68714716 Ry
     estimated scf accuracy    <       0.00076503 Ry

     iteration # 10     ecut=    90.00 Ry     beta= 0.70
     Davidson diagonalization with overlap
     ethr =  9.12E-07,  avg # of iterations =  2.0

     negative rho (up, down):  7.489E-07 0.000E+00

     total cpu time spent up to now is      112.6 secs

     total energy              =    -278.68720125 Ry
     estimated scf accuracy    <       0.00011307 Ry

     iteration # 11     ecut=    90.00 Ry     beta= 0.70
     Davidson diagonalization with overlap
     ethr =  1.77E-07,  avg # of iterations =  1.5

     negative rho (up, down):  7.373E-07 0.000E+00

     total cpu time spent up to now is      120.7 secs

     total energy              =    -278.68718414 Ry
     estimated scf accuracy    <       0.00005411 Ry

     iteration # 12     ecut=    90.00 Ry     beta= 0.70
     Davidson diagonalization with overlap
     ethr =  8.45E-08,  avg # of iterations =  2.0

     negative rho (up, down):  7.354E-07 0.000E+00

     total cpu time spent up to now is      130.7 secs

     total energy              =    -278.68719845 Ry
     estimated scf accuracy    <       0.00000023 Ry

     iteration # 13     ecut=    90.00 Ry     beta= 0.70
     Davidson diagonalization with overlap
     ethr =  3.53E-10,  avg # of iterations =  6.5

     negative rho (up, down):  7.447E-07 0.000E+00

     total cpu time spent up to now is      150.0 secs

     total energy              =    -278.68719729 Ry
     estimated scf accuracy    <       0.00000716 Ry

     iteration # 14     ecut=    90.00 Ry     beta= 0.70
     Davidson diagonalization with overlap
     ethr =  3.53E-10,  avg # of iterations =  5.0

     negative rho (up, down):  7.451E-07 0.000E+00

     total cpu time spent up to now is      168.4 secs

     End of self-consistent calculation

     Number of k-points >= 100: set verbosity='high' to print the bands.

     highest occupied level (ev):    -4.2371

!    total energy              =    -278.68719841 Ry
     estimated scf accuracy    <       0.00000005 Ry

     The total energy is the sum of the following terms:
     one-electron contribution =    -244.78503220 Ry
     hartree contribution      =     142.47110852 Ry
     xc contribution           =     -70.04302519 Ry
     ewald contribution        =    -106.33024954 Ry

     convergence has been achieved in  14 iterations

     Forces acting on atoms (cartesian axes, Ry/au):

     atom    1 type  2   force =     0.00000000   -0.03731912    0.02727577
     atom    2 type  2   force =     0.00000000    0.03731892    0.02727571
     atom    3 type  2   force =     0.00000000   -0.03731968    0.02727615
     atom    4 type  2   force =     0.00000000    0.03731889    0.02727561
     atom    5 type  2   force =     0.00000000   -0.03872266    0.02550931
     atom    6 type  2   force =     0.00000000    0.03872308    0.02550979
     atom    7 type  2   force =     0.00000000   -0.03872227    0.02550915
     atom    8 type  2   force =     0.00000000    0.03872272    0.02550941
     atom    9 type  1   force =     0.00000000   -0.00155110   -0.04288609
     atom   10 type  1   force =     0.00000000    0.00155109   -0.04288624
     atom   11 type  1   force =     0.00000000   -0.00155113   -0.04288587
     atom   12 type  1   force =     0.00000000    0.00155109   -0.04288621
     atom   13 type  1   force =     0.00000000    0.03988439    0.01559071
     atom   14 type  1   force =     0.00000000   -0.03988430    0.01559066
     atom   15 type  1   force =     0.00000000    0.03988419    0.01559066
     atom   16 type  1   force =     0.00000000   -0.03988428    0.01559064
     atom   17 type  1   force =    -0.03622508    0.01888739   -0.01274490
     atom   18 type  1   force =     0.03622501   -0.01888733   -0.01274486
     atom   19 type  1   force =    -0.03622501   -0.01888733   -0.01274486
     atom   20 type  1   force =     0.03622508    0.01888739   -0.01274490
     atom   21 type  1   force =    -0.03622505    0.01888739   -0.01274490
     atom   22 type  1   force =     0.03622510   -0.01888739   -0.01274491
     atom   23 type  1   force =    -0.03622510   -0.01888739   -0.01274491
     atom   24 type  1   force =     0.03622505    0.01888739   -0.01274490

     Total force =     0.215640     Total SCF correction =     0.000088


     Computing stress (Cartesian axis) and pressure

          total   stress  (Ry/bohr**3)                   (kbar)     P=      -48.17
  -0.00033376   0.00000000   0.00000000          -49.10        0.00        0.00
   0.00000000  -0.00032432   0.00000000            0.00      -47.71        0.00
   0.00000000   0.00000000  -0.00032418            0.00        0.00      -47.69


     Writing all to output data dir ./iceIh/iceIh.save/ :
     XML data file, charge density, pseudopotentials, collected wavefunctions

     init_run     :      6.55s CPU      6.69s WALL (       1 calls)
     electrons    :    159.29s CPU    161.44s WALL (       1 calls)
     forces       :      0.66s CPU      0.67s WALL (       1 calls)
     stress       :      9.93s CPU      9.96s WALL (       1 calls)

     Called by init_run:
     wfcinit      :      4.38s CPU      4.46s WALL (       1 calls)
     potinit      :      1.59s CPU      1.63s WALL (       1 calls)
     hinit0       :      0.48s CPU      0.49s WALL (       1 calls)

     Called by electrons:
     c_bands      :    141.23s CPU    143.07s WALL (      14 calls)
     sum_band     :     16.94s CPU     17.08s WALL (      14 calls)
     v_of_rho     :      2.57s CPU      2.71s WALL (      15 calls)
     newd         :      0.04s CPU      0.05s WALL (      15 calls)
     mix_rho      :      0.04s CPU      0.05s WALL (      14 calls)
     vdW_kernel   :      1.50s CPU      1.52s WALL (       1 calls)

     Called by c_bands:
     init_us_2    :      2.27s CPU      2.35s WALL (    3565 calls)
     cegterg      :    136.72s CPU    137.81s WALL (    1610 calls)

     Called by *egterg:
     cdiaghg      :     10.51s CPU     10.54s WALL (    6121 calls)
     h_psi        :    106.07s CPU    107.12s WALL (    6236 calls)
     s_psi        :      4.42s CPU      4.44s WALL (    6236 calls)
     g_psi        :      0.41s CPU      0.41s WALL (    4511 calls)

     Called by h_psi:
     h_psi:calbec :      7.50s CPU      7.57s WALL (    6236 calls)
     vloc_psi     :     92.99s CPU     93.91s WALL (    6236 calls)
     add_vuspsi   :      4.72s CPU      4.76s WALL (    6236 calls)

     General routines
     calbec       :      9.60s CPU      9.70s WALL (    8421 calls)
     fft          :      1.00s CPU      1.01s WALL (     967 calls)
     ffts         :      0.01s CPU      0.01s WALL (      14 calls)
     fftw         :     96.32s CPU     97.22s WALL (  390462 calls)

     Parallel routines

     PWSCF        :   2m59.36s CPU   3m 7.49s WALL


   This run was terminated on:  18:18: 5  26Mar2026            

=------------------------------------------------------------------------------=
   JOB DONE.
=------------------------------------------------------------------------------=
