
     Program PWSCF v.7.3.1 starts on 26Mar2026 at 18:37:34 

     This program is part of the open-source Quantum ESPRESSO suite
     for quantum simulation of materials; please cite
         "P. Giannozzi et al., J. Phys.:Condens. Matter 21 395502 (2009);
         "P. Giannozzi et al., J. Phys.:Condens. Matter 29 465901 (2017);
         "P. Giannozzi et al., J. Chem. Phys. 152 154105 (2020);
          URL http://www.quantum-espresso.org", 
     in publications or presentations arising from this work. More details at
     http://www.quantum-espresso.org/quote

     Parallel version (MPI), running on   128 processors

     MPI processes distributed on     1 nodes
     235781 MiB available memory on the printing compute node when the environment starts

     Waiting for input...
     Reading input from standard input

     Current dimensions of program PWSCF are:
     Max number of different atomic species (ntypx) = 10
     Max number of k-points (npk) =  40000
     Max angular momentum in pseudopotentials (lmaxx) =  4

     IMPORTANT: XC functional enforced from input :
     Exchange-correlation= VDW-DF2
                           (   1   4  13   0   2   0   0)
     Any further DFT definition will be discarded
     Please, verify this is what you really want

     Found identity + ( -0.5000 -0.5000 -0.0000) symmetry
     This is a supercell, fractional translations are disabled

     K-points division:     npool     =       4
     R & G space division:  proc/nbgrp/npool/nimage =      32
     Subspace diagonalization in iterative solution of the eigenvalue problem:
     a serial algorithm will be used


     Parallelization info
     --------------------
     sticks:   dense  smooth     PW     G-vecs:    dense   smooth      PW
     Min         121     121     33                 7115     7115    1022
     Max         122     122     35                 7126     7126    1025
     Sum        3901    3901   1085               227903   227903   32753

     Using Slab Decomposition



     bravais-lattice index     =            8
     lattice parameter (alat)  =       8.8819  a.u.
     unit-cell volume          =    1975.4779 (a.u.)^3
     number of atoms/cell      =           24
     number of atomic types    =            2
     number of electrons       =        64.00
     number of Kohn-Sham states=           32
     kinetic-energy cutoff     =      90.0000  Ry
     charge density cutoff     =     360.0000  Ry
     scf convergence threshold =      1.0E-07
     mixing beta               =       0.7000
     number of iterations used =            8  plain     mixing
     Exchange-correlation= VDW-DF2
                           (   1   4  13   0   2   0   0)

     celldm(1)=   8.881878  celldm(2)=   1.732119  celldm(3)=   1.627721
     celldm(4)=   0.000000  celldm(5)=   0.000000  celldm(6)=   0.000000

     crystal axes: (cart. coord. in units of alat)
               a(1) = (   1.000000   0.000000   0.000000 )  
               a(2) = (   0.000000   1.732119   0.000000 )  
               a(3) = (   0.000000   0.000000   1.627721 )  

     reciprocal axes: (cart. coord. in units 2 pi/alat)
               b(1) = (  1.000000  0.000000  0.000000 )  
               b(2) = (  0.000000  0.577328  0.000000 )  
               b(3) = (  0.000000  0.000000  0.614356 )  


     PseudoPot. # 1 for H  read from file:
     ./H.pbe-van_ak.UPF
     MD5 check sum: 077eb6d537518a38cb46c6de387227b7
     Pseudo is Ultrasoft, Zval =  1.0
     Generated by new atomic code, or converted to UPF format
     Using radial grid of  615 points,  1 beta functions with: 
                l(1) =   0
     Q(r) pseudized with  8 coefficients,  rinner =    0.800

     PseudoPot. # 2 for O  read from file:
     ./O.pbe-van_ak.UPF
     MD5 check sum: 78c19812648e8988a0fe644b0f25305e
     Pseudo is Ultrasoft, Zval =  6.0
     Generated by new atomic code, or converted to UPF format
     Using radial grid of  737 points,  4 beta functions with: 
                l(1) =   0
                l(2) =   0
                l(3) =   1
                l(4) =   1
     Q(r) pseudized with  8 coefficients,  rinner =    0.800   0.800   0.800


     atomic species   valence    mass     pseudopotential
     H                 1.00     1.00800     H ( 1.00)
     O                 6.00    16.00000     O ( 1.00)

      2 Sym. Ops. (no inversion) found



   Cartesian axes

     site n.     atom                  positions (alat units)
         1        O      tau(   1) = (   0.0000000   1.1505053   0.0983911  )
         2        O      tau(   2) = (   0.0000000   0.5816137   0.9122516  )
         3        O      tau(   3) = (   0.5000000   0.2844458   0.0983911  )
         4        O      tau(   4) = (   0.5000000   1.4476733   0.9122516  )
         5        O      tau(   5) = (   0.5000000   1.4413210   1.5245781  )
         6        O      tau(   6) = (   0.5000000   0.2907980   0.7107175  )
         7        O      tau(   7) = (   0.0000000   0.5752615   1.5245780  )
         8        O      tau(   8) = (   0.0000000   1.1568575   0.7107175  )
         9        H      tau(   9) = (   0.0000000   1.1476935   0.3199225  )
        10        H      tau(  10) = (   0.0000000   0.5844255   1.1337830  )
        11        H      tau(  11) = (   0.5000000   0.2816340   0.3199225  )
        12        H      tau(  12) = (   0.5000000   1.4504851   1.1337830  )
        13        H      tau(  13) = (   0.0000000   0.9389577   0.0320281  )
        14        H      tau(  14) = (   0.0000000   0.7931613   0.8458886  )
        15        H      tau(  15) = (   0.5000000   0.0728982   0.0320281  )
        16        H      tau(  16) = (   0.5000000   1.6592209   0.8458886  )
        17        H      tau(  17) = (   0.6777387   1.3318248   1.5989889  )
        18        H      tau(  18) = (   0.3222613   0.4002942   0.7851284  )
        19        H      tau(  19) = (   0.6777387   0.4002942   0.7851284  )
        20        H      tau(  20) = (   0.3222613   1.3318248   1.5989889  )
        21        H      tau(  21) = (   0.1777387   0.4657653   1.5989889  )
        22        H      tau(  22) = (   0.8222613   1.2663538   0.7851284  )
        23        H      tau(  23) = (   0.1777387   1.2663538   0.7851284  )
        24        H      tau(  24) = (   0.8222613   0.4657653   1.5989889  )

     number of k points=   460

     Number of k-points >= 100: set verbosity='high' to print them.

     Dense  grid:   227903 G-vectors     FFT dimensions: (  54,  96,  90)

     Estimated max dynamical RAM per process >      59.45 MB

     Estimated total dynamical RAM >       7.27 GB

     Initial potential from superposition of free atoms

     starting charge      63.9998, renormalised to      64.0000


     %%%%%%%%%%%%%%%%%%%%%%%%%%%%%%%%%%%%%%%%%%%%%%%%%%%%%%%%%%%%%%%%%%%%%%%%
     %                                                                      %
     % You are using vdW-DF, which was implemented by the Thonhauser group. %
     % Please cite the following two papers that made this development      %
     % possible and the two reviews that describe the various versions:     %
     %                                                                      %
     %   T. Thonhauser et al., PRL 115, 136402 (2015).                      %
     %   T. Thonhauser et al., PRB 76, 125112 (2007).                       %
     %   K. Berland et al., Rep. Prog. Phys. 78, 066501 (2015).             %
     %   D.C. Langreth et al., J. Phys.: Condens. Matter 21, 084203 (2009). %
     %                                                                      %
     % If you are calculating stress with vdW-DF, please also cite:         %
     %                                                                      %
     %   R. Sabatini et al., J. Phys.: Condens. Matter 24, 424209 (2012).   %
     %                                                                      %
     %%%%%%%%%%%%%%%%%%%%%%%%%%%%%%%%%%%%%%%%%%%%%%%%%%%%%%%%%%%%%%%%%%%%%%%%

     %%%%%%%%%%%%%%%%%%%%%%%%%%%%%%%%%%%%%%%%%%%%%%%%%%%%%%%%%%%%%%%%%%%%%%%%
     %                                                                      %
     %  vdW-DF NEWS:                                                        %
     %                                                                      %
     %  * vdW-DF3 is now available. DOI: 10.1021/acs.jctc.0c00471           %
     %    use with input_dft = 'vdW-DF3-opt1' or 'vdW-DF3-opt2'             %
     %                                                                      %
     %  * Unscreened and range-separated hybrid vdW-DF-cx functionals       %
     %    DOI: 10.1063/1.4986522 and 10.1088/1361-648X/ac2ad2               %
     %    use with input_dft = 'vdW-DF-cx0'    and 'vdW-DF-ahcx'            %
     %  * Unscreened and range-separated hybrid vdW-DF2-b86r functionals    %
     %    DOI: 10.1063/1.4986522 and DOI: 10.1103/PhysRevX.12.041003        %
     %    use with input_dft = 'vdW-DF2-br0' and 'vdW-DF2-ahbr'             %
     %                                                                      %
     %%%%%%%%%%%%%%%%%%%%%%%%%%%%%%%%%%%%%%%%%%%%%%%%%%%%%%%%%%%%%%%%%%%%%%%%


     Starting wfcs are   48 randomized atomic wfcs

     total cpu time spent up to now is        7.1 secs

     per-process dynamical memory:    66.5 Mb

     Self-consistent Calculation

     iteration #  1     ecut=    90.00 Ry     beta= 0.70
     Davidson diagonalization with overlap
     ethr =  1.00E-02,  avg # of iterations =  2.0

     total cpu time spent up to now is       17.1 secs

     total energy              =    -277.27556016 Ry
     estimated scf accuracy    <       3.01045197 Ry

     iteration #  2     ecut=    90.00 Ry     beta= 0.70
     Davidson diagonalization with overlap
     ethr =  4.70E-03,  avg # of iterations =  3.0

     total cpu time spent up to now is       30.5 secs

     total energy              =    -278.23742807 Ry
     estimated scf accuracy    <       2.53252310 Ry

     iteration #  3     ecut=    90.00 Ry     beta= 0.70
     Davidson diagonalization with overlap
     ethr =  3.96E-03,  avg # of iterations =  2.0

     total cpu time spent up to now is       40.6 secs

     total energy              =    -278.56499464 Ry
     estimated scf accuracy    <       0.11915311 Ry

     iteration #  4     ecut=    90.00 Ry     beta= 0.70
     Davidson diagonalization with overlap
     ethr =  1.86E-04,  avg # of iterations =  4.0

     total cpu time spent up to now is       55.8 secs

     total energy              =    -278.65723150 Ry
     estimated scf accuracy    <       0.13384598 Ry

     iteration #  5     ecut=    90.00 Ry     beta= 0.70
     Davidson diagonalization with overlap
     ethr =  1.86E-04,  avg # of iterations =  1.8

     total cpu time spent up to now is       64.0 secs

     total energy              =    -278.65783331 Ry
     estimated scf accuracy    <       0.02281293 Ry

     iteration #  6     ecut=    90.00 Ry     beta= 0.70
     Davidson diagonalization with overlap
     ethr =  3.56E-05,  avg # of iterations =  2.0

     total cpu time spent up to now is       74.1 secs

     total energy              =    -278.66242094 Ry
     estimated scf accuracy    <       0.00097179 Ry

     iteration #  7     ecut=    90.00 Ry     beta= 0.70
     Davidson diagonalization with overlap
     ethr =  1.52E-06,  avg # of iterations =  3.8

     total cpu time spent up to now is       86.4 secs

     total energy              =    -278.66326742 Ry
     estimated scf accuracy    <       0.00046006 Ry

     iteration #  8     ecut=    90.00 Ry     beta= 0.70
     Davidson diagonalization with overlap
     ethr =  7.19E-07,  avg # of iterations =  2.0

     total cpu time spent up to now is       96.0 secs

     total energy              =    -278.66314829 Ry
     estimated scf accuracy    <       0.00107681 Ry

     iteration #  9     ecut=    90.00 Ry     beta= 0.70
     Davidson diagonalization with overlap
     ethr =  7.19E-07,  avg # of iterations =  1.0

     total cpu time spent up to now is      103.4 secs

     total energy              =    -278.66294236 Ry
     estimated scf accuracy    <       0.00068511 Ry

     iteration # 10     ecut=    90.00 Ry     beta= 0.70
     Davidson diagonalization with overlap
     ethr =  7.19E-07,  avg # of iterations =  2.0

     total cpu time spent up to now is      112.3 secs

     total energy              =    -278.66296578 Ry
     estimated scf accuracy    <       0.00014659 Ry

     iteration # 11     ecut=    90.00 Ry     beta= 0.70
     Davidson diagonalization with overlap
     ethr =  2.29E-07,  avg # of iterations =  2.0

     total cpu time spent up to now is      121.3 secs

     total energy              =    -278.66297530 Ry
     estimated scf accuracy    <       0.00006352 Ry

     iteration # 12     ecut=    90.00 Ry     beta= 0.70
     Davidson diagonalization with overlap
     ethr =  9.92E-08,  avg # of iterations =  1.2

     total cpu time spent up to now is      129.0 secs

     total energy              =    -278.66295484 Ry
     estimated scf accuracy    <       0.00004762 Ry

     iteration # 13     ecut=    90.00 Ry     beta= 0.70
     Davidson diagonalization with overlap
     ethr =  7.44E-08,  avg # of iterations =  3.0

     total cpu time spent up to now is      141.4 secs

     total energy              =    -278.66297100 Ry
     estimated scf accuracy    <       0.00000137 Ry

     iteration # 14     ecut=    90.00 Ry     beta= 0.70
     Davidson diagonalization with overlap
     ethr =  2.14E-09,  avg # of iterations =  4.0

     total cpu time spent up to now is      154.4 secs

     total energy              =    -278.66297132 Ry
     estimated scf accuracy    <       0.00000109 Ry

     iteration # 15     ecut=    90.00 Ry     beta= 0.70
     Davidson diagonalization with overlap
     ethr =  1.70E-09,  avg # of iterations =  2.0

     total cpu time spent up to now is      165.1 secs

     total energy              =    -278.66297255 Ry
     estimated scf accuracy    <       0.00000038 Ry

     iteration # 16     ecut=    90.00 Ry     beta= 0.70
     Davidson diagonalization with overlap
     ethr =  5.97E-10,  avg # of iterations =  5.0

     total cpu time spent up to now is      183.6 secs

     total energy              =    -278.66297505 Ry
     estimated scf accuracy    <       0.00000915 Ry

     iteration # 17     ecut=    90.00 Ry     beta= 0.70
     Davidson diagonalization with overlap
     ethr =  5.97E-10,  avg # of iterations =  2.2

     total cpu time spent up to now is      194.4 secs

     total energy              =    -278.66297217 Ry
     estimated scf accuracy    <       0.00001278 Ry

     iteration # 18     ecut=    90.00 Ry     beta= 0.70
     Davidson diagonalization with overlap
     ethr =  5.97E-10,  avg # of iterations =  4.0

     total cpu time spent up to now is      208.7 secs

     total energy              =    -278.66297088 Ry
     estimated scf accuracy    <       0.00000432 Ry

     iteration # 19     ecut=    90.00 Ry     beta= 0.70
     Davidson diagonalization with overlap
     ethr =  5.97E-10,  avg # of iterations =  4.0

     total cpu time spent up to now is      222.9 secs

     total energy              =    -278.66297146 Ry
     estimated scf accuracy    <       0.00000013 Ry

     iteration # 20     ecut=    90.00 Ry     beta= 0.70
     Davidson diagonalization with overlap
     ethr =  1.97E-10,  avg # of iterations =  1.6

     total cpu time spent up to now is      231.2 secs

     End of self-consistent calculation

     Number of k-points >= 100: set verbosity='high' to print the bands.

     highest occupied level (ev):    -4.3526

!    total energy              =    -278.66297140 Ry
     estimated scf accuracy    <       0.00000008 Ry

     The total energy is the sum of the following terms:
     one-electron contribution =    -247.04857333 Ry
     hartree contribution      =     143.34353001 Ry
     xc contribution           =     -69.84986531 Ry
     ewald contribution        =    -105.10806276 Ry

     convergence has been achieved in  20 iterations

     Forces acting on atoms (cartesian axes, Ry/au):

     atom    1 type  2   force =     0.00000000   -0.04921262    0.03596028
     atom    2 type  2   force =     0.00000000    0.04921306    0.03596091
     atom    3 type  2   force =     0.00000000   -0.04920967    0.03595853
     atom    4 type  2   force =     0.00000000    0.04920954    0.03595837
     atom    5 type  2   force =     0.00000000   -0.05064163    0.03401005
     atom    6 type  2   force =     0.00000000    0.05064077    0.03400950
     atom    7 type  2   force =     0.00000000   -0.05064157    0.03401024
     atom    8 type  2   force =     0.00000000    0.05064239    0.03401032
     atom    9 type  1   force =     0.00000000   -0.00221734   -0.05674045
     atom   10 type  1   force =     0.00000000    0.00221734   -0.05674078
     atom   11 type  1   force =     0.00000000   -0.00221733   -0.05674032
     atom   12 type  1   force =     0.00000000    0.00221729   -0.05674021
     atom   13 type  1   force =     0.00000000    0.05257747    0.02062871
     atom   14 type  1   force =     0.00000000   -0.05257746    0.02062870
     atom   15 type  1   force =     0.00000000    0.05257708    0.02062851
     atom   16 type  1   force =     0.00000000   -0.05257718    0.02062853
     atom   17 type  1   force =    -0.04786168    0.02497107   -0.01692877
     atom   18 type  1   force =     0.04786159   -0.02497109   -0.01692880
     atom   19 type  1   force =    -0.04786159   -0.02497109   -0.01692880
     atom   20 type  1   force =     0.04786168    0.02497107   -0.01692877
     atom   21 type  1   force =    -0.04786211    0.02497133   -0.01692893
     atom   22 type  1   force =     0.04786219   -0.02497138   -0.01692895
     atom   23 type  1   force =    -0.04786219   -0.02497138   -0.01692895
     atom   24 type  1   force =     0.04786211    0.02497133   -0.01692893

     Total force =     0.284621     Total SCF correction =     0.000223


     Computing stress (Cartesian axis) and pressure

          total   stress  (Ry/bohr**3)                   (kbar)     P=      -62.71
  -0.00043278   0.00000000   0.00000000          -63.66        0.00        0.00
   0.00000000  -0.00042437   0.00000000            0.00      -62.43        0.00
   0.00000000   0.00000000  -0.00042174            0.00        0.00      -62.04


     Writing all to output data dir ./iceIh/iceIh.save/ :
     XML data file, charge density, pseudopotentials, collected wavefunctions

     init_run     :      6.61s CPU      6.77s WALL (       1 calls)
     electrons    :    220.82s CPU    224.19s WALL (       1 calls)
     forces       :      0.69s CPU      0.70s WALL (       1 calls)
     stress       :     10.32s CPU     10.34s WALL (       1 calls)

     Called by init_run:
     wfcinit      :      4.45s CPU      4.54s WALL (       1 calls)
     potinit      :      1.59s CPU      1.63s WALL (       1 calls)
     hinit0       :      0.48s CPU      0.48s WALL (       1 calls)

     Called by electrons:
     c_bands      :    195.07s CPU    197.84s WALL (      20 calls)
     sum_band     :     24.17s CPU     24.46s WALL (      20 calls)
     v_of_rho     :      2.99s CPU      3.20s WALL (      21 calls)
     newd         :      0.05s CPU      0.07s WALL (      21 calls)
     mix_rho      :      0.07s CPU      0.07s WALL (      20 calls)
     vdW_kernel   :      1.50s CPU      1.52s WALL (       1 calls)

     Called by c_bands:
     init_us_2    :      3.22s CPU      3.35s WALL (    4945 calls)
     cegterg      :    188.15s CPU    189.84s WALL (    2300 calls)

     Called by *egterg:
     cdiaghg      :     14.33s CPU     14.39s WALL (    8385 calls)
     h_psi        :    144.63s CPU    146.18s WALL (    8500 calls)
     s_psi        :      6.11s CPU      6.15s WALL (    8500 calls)
     g_psi        :      0.55s CPU      0.56s WALL (    6085 calls)

     Called by h_psi:
     h_psi:calbec :     10.56s CPU     10.67s WALL (    8500 calls)
     vloc_psi     :    126.35s CPU    127.71s WALL (    8500 calls)
     add_vuspsi   :      6.42s CPU      6.48s WALL (    8500 calls)

     General routines
     calbec       :     13.42s CPU     13.57s WALL (   11375 calls)
     fft          :      1.25s CPU      1.28s WALL (    1333 calls)
     ffts         :      0.01s CPU      0.01s WALL (      20 calls)
     fftw         :    131.99s CPU    133.37s WALL (  530088 calls)

     Parallel routines

     PWSCF        :   4m 1.37s CPU   4m11.25s WALL


   This run was terminated on:  18:41:45  26Mar2026            

=------------------------------------------------------------------------------=
   JOB DONE.
=------------------------------------------------------------------------------=
