
     Program PWSCF v.7.3.1 starts on  2Apr2026 at  4:34:54 

     This program is part of the open-source Quantum ESPRESSO suite
     for quantum simulation of materials; please cite
         "P. Giannozzi et al., J. Phys.:Condens. Matter 21 395502 (2009);
         "P. Giannozzi et al., J. Phys.:Condens. Matter 29 465901 (2017);
         "P. Giannozzi et al., J. Chem. Phys. 152 154105 (2020);
          URL http://www.quantum-espresso.org", 
     in publications or presentations arising from this work. More details at
     http://www.quantum-espresso.org/quote

     Parallel version (MPI), running on   128 processors

     MPI processes distributed on     1 nodes
     235759 MiB available memory on the printing compute node when the environment starts

     Waiting for input...
     Reading input from standard input

     Current dimensions of program PWSCF are:
     Max number of different atomic species (ntypx) = 10
     Max number of k-points (npk) =  40000
     Max angular momentum in pseudopotentials (lmaxx) =  4

     IMPORTANT: XC functional enforced from input :
     Exchange-correlation= VDW-DF2
                           (   1   4  13   0   2   0   0)
     Any further DFT definition will be discarded
     Please, verify this is what you really want

     Found identity + ( -0.5000 -0.5000  0.0000) symmetry
     This is a supercell, fractional translations are disabled

     K-points division:     npool     =       4
     R & G space division:  proc/nbgrp/npool/nimage =      32
     Subspace diagonalization in iterative solution of the eigenvalue problem:
     a serial algorithm will be used


     Parallelization info
     --------------------
     sticks:   dense  smooth     PW     G-vecs:    dense   smooth      PW
     Min         122     122     33                 7136     7136    1023
     Max         123     123     34                 7144     7144    1026
     Sum        3905    3905   1085               228527   228527   32797

     Using Slab Decomposition



     bravais-lattice index     =            8
     lattice parameter (alat)  =       8.8904  a.u.
     unit-cell volume          =    1981.1600 (a.u.)^3
     number of atoms/cell      =           24
     number of atomic types    =            2
     number of electrons       =        64.00
     number of Kohn-Sham states=           32
     kinetic-energy cutoff     =      90.0000  Ry
     charge density cutoff     =     360.0000  Ry
     scf convergence threshold =      1.0E-07
     mixing beta               =       0.7000
     number of iterations used =            8  plain     mixing
     energy convergence thresh.=      1.0E-04
     force convergence thresh. =      1.0E-03
     Exchange-correlation= VDW-DF2
                           (   1   4  13   0   2   0   0)
     nstep                     =           50


     celldm(1)=   8.890386  celldm(2)=   1.732119  celldm(3)=   1.627721
     celldm(4)=   0.000000  celldm(5)=   0.000000  celldm(6)=   0.000000

     crystal axes: (cart. coord. in units of alat)
               a(1) = (   1.000000   0.000000   0.000000 )  
               a(2) = (   0.000000   1.732119   0.000000 )  
               a(3) = (   0.000000   0.000000   1.627721 )  

     reciprocal axes: (cart. coord. in units 2 pi/alat)
               b(1) = (  1.000000  0.000000  0.000000 )  
               b(2) = (  0.000000  0.577328  0.000000 )  
               b(3) = (  0.000000  0.000000  0.614356 )  


     PseudoPot. # 1 for H  read from file:
     ./H.pbe-van_ak.UPF
     MD5 check sum: 077eb6d537518a38cb46c6de387227b7
     Pseudo is Ultrasoft, Zval =  1.0
     Generated by new atomic code, or converted to UPF format
     Using radial grid of  615 points,  1 beta functions with: 
                l(1) =   0
     Q(r) pseudized with  8 coefficients,  rinner =    0.800

     PseudoPot. # 2 for O  read from file:
     ./O.pbe-van_ak.UPF
     MD5 check sum: 78c19812648e8988a0fe644b0f25305e
     Pseudo is Ultrasoft, Zval =  6.0
     Generated by new atomic code, or converted to UPF format
     Using radial grid of  737 points,  4 beta functions with: 
                l(1) =   0
                l(2) =   0
                l(3) =   1
                l(4) =   1
     Q(r) pseudized with  8 coefficients,  rinner =    0.800   0.800   0.800


     atomic species   valence    mass     pseudopotential
     H                 1.00     1.00800     H ( 1.00)
     O                 6.00    16.00000     O ( 1.00)

      2 Sym. Ops. (no inversion) found



   Cartesian axes

     site n.     atom                  positions (alat units)
         1        O      tau(   1) = (   0.0000000   1.1515127   0.1027092  )
         2        O      tau(   2) = (   0.0000000   0.5806063   0.9165697  )
         3        O      tau(   3) = (   0.5000000   0.2854532   0.1027092  )
         4        O      tau(   4) = (   0.5000000   1.4466659   0.9165697  )
         5        O      tau(   5) = (   0.5000000   1.4298643   1.5250118  )
         6        O      tau(   6) = (   0.5000000   0.3022548   0.7111513  )
         7        O      tau(   7) = (   0.0000000   0.5638048   1.5250118  )
         8        O      tau(   8) = (   0.0000000   1.1683143   0.7111513  )
         9        H      tau(   9) = (   0.0000000   1.1494343   0.3195216  )
        10        H      tau(  10) = (   0.0000000   0.5826848   1.1333822  )
        11        H      tau(  11) = (   0.5000000   0.2833747   0.3195216  )
        12        H      tau(  12) = (   0.5000000   1.4487443   1.1333822  )
        13        H      tau(  13) = (   0.0000000   0.9289355   0.0297873  )
        14        H      tau(  14) = (   0.0000000   0.8031836   0.8436478  )
        15        H      tau(  15) = (   0.5000000   0.0628759   0.0297873  )
        16        H      tau(  16) = (   0.5000000   1.6692431   0.8436478  )
        17        H      tau(  17) = (   0.6766000   1.3420459   1.5979337  )
        18        H      tau(  18) = (   0.3234000   0.3900732   0.7840732  )
        19        H      tau(  19) = (   0.6766000   0.3900732   0.7840732  )
        20        H      tau(  20) = (   0.3234000   1.3420459   1.5979337  )
        21        H      tau(  21) = (   0.1766000   0.4759863   1.5979337  )
        22        H      tau(  22) = (   0.8234000   1.2561327   0.7840732  )
        23        H      tau(  23) = (   0.1766000   1.2561327   0.7840732  )
        24        H      tau(  24) = (   0.8234000   0.4759863   1.5979337  )

     number of k points=   460

     Number of k-points >= 100: set verbosity='high' to print them.

     Dense  grid:   228527 G-vectors     FFT dimensions: (  54,  96,  90)

     Estimated max dynamical RAM per process >      59.58 MB

     Estimated total dynamical RAM >       7.28 GB

     Initial potential from superposition of free atoms

     starting charge      63.9998, renormalised to      64.0000


     %%%%%%%%%%%%%%%%%%%%%%%%%%%%%%%%%%%%%%%%%%%%%%%%%%%%%%%%%%%%%%%%%%%%%%%%
     %                                                                      %
     % You are using vdW-DF, which was implemented by the Thonhauser group. %
     % Please cite the following two papers that made this development      %
     % possible and the two reviews that describe the various versions:     %
     %                                                                      %
     %   T. Thonhauser et al., PRL 115, 136402 (2015).                      %
     %   T. Thonhauser et al., PRB 76, 125112 (2007).                       %
     %   K. Berland et al., Rep. Prog. Phys. 78, 066501 (2015).             %
     %   D.C. Langreth et al., J. Phys.: Condens. Matter 21, 084203 (2009). %
     %                                                                      %
     % If you are calculating stress with vdW-DF, please also cite:         %
     %                                                                      %
     %   R. Sabatini et al., J. Phys.: Condens. Matter 24, 424209 (2012).   %
     %                                                                      %
     %%%%%%%%%%%%%%%%%%%%%%%%%%%%%%%%%%%%%%%%%%%%%%%%%%%%%%%%%%%%%%%%%%%%%%%%

     %%%%%%%%%%%%%%%%%%%%%%%%%%%%%%%%%%%%%%%%%%%%%%%%%%%%%%%%%%%%%%%%%%%%%%%%
     %                                                                      %
     %  vdW-DF NEWS:                                                        %
     %                                                                      %
     %  * vdW-DF3 is now available. DOI: 10.1021/acs.jctc.0c00471           %
     %    use with input_dft = 'vdW-DF3-opt1' or 'vdW-DF3-opt2'             %
     %                                                                      %
     %  * Unscreened and range-separated hybrid vdW-DF-cx functionals       %
     %    DOI: 10.1063/1.4986522 and 10.1088/1361-648X/ac2ad2               %
     %    use with input_dft = 'vdW-DF-cx0'    and 'vdW-DF-ahcx'            %
     %  * Unscreened and range-separated hybrid vdW-DF2-b86r functionals    %
     %    DOI: 10.1063/1.4986522 and DOI: 10.1103/PhysRevX.12.041003        %
     %    use with input_dft = 'vdW-DF2-br0' and 'vdW-DF2-ahbr'             %
     %                                                                      %
     %%%%%%%%%%%%%%%%%%%%%%%%%%%%%%%%%%%%%%%%%%%%%%%%%%%%%%%%%%%%%%%%%%%%%%%%


     Starting wfcs are   48 randomized atomic wfcs

     total cpu time spent up to now is        7.0 secs

     per-process dynamical memory:    66.7 Mb

     Self-consistent Calculation

     iteration #  1     ecut=    90.00 Ry     beta= 0.70
     Davidson diagonalization with overlap
     ethr =  1.00E-02,  avg # of iterations =  2.0

     negative rho (up, down):  6.932E-08 0.000E+00

     total cpu time spent up to now is       17.0 secs

     total energy              =    -277.19108138 Ry
     estimated scf accuracy    <       3.16170322 Ry

     iteration #  2     ecut=    90.00 Ry     beta= 0.70
     Davidson diagonalization with overlap
     ethr =  4.94E-03,  avg # of iterations =  3.0

     total cpu time spent up to now is       30.3 secs

     total energy              =    -278.19677226 Ry
     estimated scf accuracy    <       2.60093397 Ry

     iteration #  3     ecut=    90.00 Ry     beta= 0.70
     Davidson diagonalization with overlap
     ethr =  4.06E-03,  avg # of iterations =  2.0

     total cpu time spent up to now is       40.3 secs

     total energy              =    -278.54031946 Ry
     estimated scf accuracy    <       0.11775526 Ry

     iteration #  4     ecut=    90.00 Ry     beta= 0.70
     Davidson diagonalization with overlap
     ethr =  1.84E-04,  avg # of iterations =  4.0

     negative rho (up, down):  1.349E-07 0.000E+00

     total cpu time spent up to now is       55.5 secs

     total energy              =    -278.63245971 Ry
     estimated scf accuracy    <       0.12884258 Ry

     iteration #  5     ecut=    90.00 Ry     beta= 0.70
     Davidson diagonalization with overlap
     ethr =  1.84E-04,  avg # of iterations =  1.5

     negative rho (up, down):  2.203E-07 0.000E+00

     total cpu time spent up to now is       63.6 secs

     total energy              =    -278.63648714 Ry
     estimated scf accuracy    <       0.02251008 Ry

     iteration #  6     ecut=    90.00 Ry     beta= 0.70
     Davidson diagonalization with overlap
     ethr =  3.52E-05,  avg # of iterations =  2.0

     negative rho (up, down):  3.695E-07 0.000E+00

     total cpu time spent up to now is       72.4 secs

     total energy              =    -278.63425162 Ry
     estimated scf accuracy    <       0.00925403 Ry

     iteration #  7     ecut=    90.00 Ry     beta= 0.70
     Davidson diagonalization with overlap
     ethr =  1.45E-05,  avg # of iterations =  3.0

     negative rho (up, down):  4.365E-07 0.000E+00

     total cpu time spent up to now is       85.0 secs

     total energy              =    -278.63801248 Ry
     estimated scf accuracy    <       0.00028331 Ry

     iteration #  8     ecut=    90.00 Ry     beta= 0.70
     Davidson diagonalization with overlap
     ethr =  4.43E-07,  avg # of iterations =  4.1

     negative rho (up, down):  3.725E-07 0.000E+00

     total cpu time spent up to now is      100.0 secs

     total energy              =    -278.63777860 Ry
     estimated scf accuracy    <       0.00224776 Ry

     iteration #  9     ecut=    90.00 Ry     beta= 0.70
     Davidson diagonalization with overlap
     ethr =  4.43E-07,  avg # of iterations =  3.0

     negative rho (up, down):  3.361E-07 0.000E+00

     total cpu time spent up to now is      111.7 secs

     total energy              =    -278.63762560 Ry
     estimated scf accuracy    <       0.00067012 Ry

     iteration # 10     ecut=    90.00 Ry     beta= 0.70
     Davidson diagonalization with overlap
     ethr =  4.43E-07,  avg # of iterations =  3.0

     negative rho (up, down):  3.349E-07 0.000E+00

     total cpu time spent up to now is      124.0 secs

     total energy              =    -278.63773383 Ry
     estimated scf accuracy    <       0.00002547 Ry

     iteration # 11     ecut=    90.00 Ry     beta= 0.70
     Davidson diagonalization with overlap
     ethr =  3.98E-08,  avg # of iterations =  3.0

     negative rho (up, down):  3.352E-07 0.000E+00

     total cpu time spent up to now is      135.8 secs

     total energy              =    -278.63774240 Ry
     estimated scf accuracy    <       0.00000219 Ry

     iteration # 12     ecut=    90.00 Ry     beta= 0.70
     Davidson diagonalization with overlap
     ethr =  3.42E-09,  avg # of iterations =  4.9

     negative rho (up, down):  3.370E-07 0.000E+00

     total cpu time spent up to now is      149.9 secs

     total energy              =    -278.63774377 Ry
     estimated scf accuracy    <       0.00000046 Ry

     iteration # 13     ecut=    90.00 Ry     beta= 0.70
     Davidson diagonalization with overlap
     ethr =  7.23E-10,  avg # of iterations =  2.0

     negative rho (up, down):  3.374E-07 0.000E+00

     total cpu time spent up to now is      158.9 secs

     End of self-consistent calculation

     Number of k-points >= 100: set verbosity='high' to print the bands.

     highest occupied level (ev):    -4.2563

!    total energy              =    -278.63774379 Ry
     estimated scf accuracy    <       0.00000009 Ry

     The total energy is the sum of the following terms:
     one-electron contribution =    -249.38619672 Ry
     hartree contribution      =     144.41246370 Ry
     xc contribution           =     -70.04725657 Ry
     ewald contribution        =    -103.61675420 Ry

     convergence has been achieved in  13 iterations

     Forces acting on atoms (cartesian axes, Ry/au):

     atom    1 type  2   force =     0.00000000   -0.09427748   -0.00594413
     atom    2 type  2   force =     0.00000000    0.09427753   -0.00594366
     atom    3 type  2   force =     0.00000000   -0.09427748   -0.00594402
     atom    4 type  2   force =     0.00000000    0.09427751   -0.00594357
     atom    5 type  2   force =     0.00000000    0.03951188   -0.01877259
     atom    6 type  2   force =     0.00000000   -0.03951172   -0.01877253
     atom    7 type  2   force =     0.00000000    0.03951185   -0.01877259
     atom    8 type  2   force =     0.00000000   -0.03951173   -0.01877254
     atom    9 type  1   force =     0.00000000   -0.00620549   -0.03805802
     atom   10 type  1   force =     0.00000000    0.00620549   -0.03805854
     atom   11 type  1   force =     0.00000000   -0.00620550   -0.03805810
     atom   12 type  1   force =     0.00000000    0.00620550   -0.03805863
     atom   13 type  1   force =     0.00000000    0.09995396    0.03925814
     atom   14 type  1   force =     0.00000000   -0.09995392    0.03925808
     atom   15 type  1   force =     0.00000000    0.09995401    0.03925815
     atom   16 type  1   force =     0.00000000   -0.09995392    0.03925809
     atom   17 type  1   force =    -0.00722421   -0.01918378    0.01175836
     atom   18 type  1   force =     0.00722435    0.01918366    0.01175824
     atom   19 type  1   force =    -0.00722435    0.01918366    0.01175824
     atom   20 type  1   force =     0.00722421   -0.01918378    0.01175836
     atom   21 type  1   force =    -0.00722416   -0.01918381    0.01175838
     atom   22 type  1   force =     0.00722432    0.01918368    0.01175826
     atom   23 type  1   force =    -0.00722432    0.01918368    0.01175826
     atom   24 type  1   force =     0.00722416   -0.01918381    0.01175838

     Total force =     0.316057     Total SCF correction =     0.000117


     Computing stress (Cartesian axis) and pressure

          total   stress  (Ry/bohr**3)                   (kbar)     P=      -44.15
  -0.00013458   0.00000000   0.00000000          -19.80        0.00        0.00
   0.00000000  -0.00050703   0.00000000            0.00      -74.59        0.00
   0.00000000   0.00000000  -0.00025877            0.00        0.00      -38.07


     BFGS Geometry Optimization
     Energy error            =      0.0E+00 Ry
     Gradient error          =      1.0E-01 Ry/Bohr

     number of scf cycles    =   1
     number of bfgs steps    =   0

     energy             new  =    -278.6377437857 Ry

     new trust radius        =       0.1073871817 bohr
     new conv_thr            =       0.0000001000 Ry


ATOMIC_POSITIONS (crystal)
O                0.0000000000        0.6586777582        0.0626892435
O                0.0000000000        0.3413222445        0.5626892530
O                0.5000000000        0.1586777583        0.0626892509
O                0.5000000000        0.8413222436        0.5626892588
O                0.5000000000        0.8280658498        0.9356027705
O                0.5000000000        0.1719341608        0.4356027444
O                0.0000000000        0.3280658479        0.9356027703
O                0.0000000000        0.6719341604        0.4356027439
H                0.0000000000        0.6631970531        0.1936700615
H                0.0000000000        0.3368029469        0.6936700554
H                0.5000000000        0.1631970525        0.1936700558
H                0.5000000000        0.8368029471        0.6936700494
H                0.0000000000        0.5427908550        0.0210128716
H                0.0000000000        0.4572091473        0.5210128640
H                0.5000000000        0.0427908585        0.0210128725
H                0.5000000000        0.9572091476        0.5210128641
H                0.6757873926        0.7735542387        0.9825125456
H                0.3242126238        0.2264457533        0.4825125371
H                0.6757873762        0.2264457533        0.4825125371
H                0.3242126074        0.7735542387        0.9825125456
H                0.1757873974        0.2735542372        0.9825125470
H                0.8242126202        0.7264457550        0.4825125385
H                0.1757873798        0.7264457550        0.4825125385
H                0.8242126026        0.2735542372        0.9825125470



     Writing config-only to output data dir ./iceIh_vdw/iceIh_vdw.save/ :
     XML data file
     NEW-OLD atomic charge density approx. for the potential

     negative rho (up, down):  5.363E-07 0.000E+00

     total cpu time spent up to now is      170.3 secs

     per-process dynamical memory:    66.9 Mb

     Self-consistent Calculation

     iteration #  1     ecut=    90.00 Ry     beta= 0.70
     Davidson diagonalization with overlap
     ethr =  1.00E-06,  avg # of iterations =  9.6

     total cpu time spent up to now is      198.4 secs

     total energy              =    -278.68600048 Ry
     estimated scf accuracy    <       0.02523368 Ry

     iteration #  2     ecut=    90.00 Ry     beta= 0.70
     Davidson diagonalization with overlap
     ethr =  3.94E-05,  avg # of iterations =  3.6

     total cpu time spent up to now is      211.0 secs

     total energy              =    -278.69073882 Ry
     estimated scf accuracy    <       0.01862694 Ry

     iteration #  3     ecut=    90.00 Ry     beta= 0.70
     Davidson diagonalization with overlap
     ethr =  2.91E-05,  avg # of iterations =  2.8

     total cpu time spent up to now is      221.7 secs

     total energy              =    -278.69487693 Ry
     estimated scf accuracy    <       0.00016619 Ry

     iteration #  4     ecut=    90.00 Ry     beta= 0.70
     Davidson diagonalization with overlap
     ethr =  2.60E-07,  avg # of iterations =  6.1

     total cpu time spent up to now is      240.2 secs

     total energy              =    -278.69495196 Ry
     estimated scf accuracy    <       0.00064976 Ry

     iteration #  5     ecut=    90.00 Ry     beta= 0.70
     Davidson diagonalization with overlap
     ethr =  2.60E-07,  avg # of iterations =  4.0

     total cpu time spent up to now is      255.0 secs

     total energy              =    -278.69513308 Ry
     estimated scf accuracy    <       0.00003774 Ry

     iteration #  6     ecut=    90.00 Ry     beta= 0.70
     Davidson diagonalization with overlap
     ethr =  5.90E-08,  avg # of iterations =  2.0

     total cpu time spent up to now is      264.2 secs

     total energy              =    -278.69513078 Ry
     estimated scf accuracy    <       0.00001599 Ry

     iteration #  7     ecut=    90.00 Ry     beta= 0.70
     Davidson diagonalization with overlap
     ethr =  2.50E-08,  avg # of iterations =  2.0

     total cpu time spent up to now is      273.5 secs

     total energy              =    -278.69513177 Ry
     estimated scf accuracy    <       0.00000185 Ry

     iteration #  8     ecut=    90.00 Ry     beta= 0.70
     Davidson diagonalization with overlap
     ethr =  2.88E-09,  avg # of iterations =  3.7

     total cpu time spent up to now is      286.8 secs

     total energy              =    -278.69513270 Ry
     estimated scf accuracy    <       0.00000032 Ry

     iteration #  9     ecut=    90.00 Ry     beta= 0.70
     Davidson diagonalization with overlap
     ethr =  5.05E-10,  avg # of iterations =  2.0

     total cpu time spent up to now is      296.3 secs

     End of self-consistent calculation

     Number of k-points >= 100: set verbosity='high' to print the bands.

     highest occupied level (ev):    -4.4096

!    total energy              =    -278.69513267 Ry
     estimated scf accuracy    <       0.00000008 Ry

     The total energy is the sum of the following terms:
     one-electron contribution =    -251.82791973 Ry
     hartree contribution      =     145.52476829 Ry
     xc contribution           =     -70.28407631 Ry
     ewald contribution        =    -102.10790492 Ry

     convergence has been achieved in   9 iterations

     Forces acting on atoms (cartesian axes, Ry/au):

     atom    1 type  2   force =     0.00000000    0.01380636    0.00421315
     atom    2 type  2   force =     0.00000000   -0.01380632    0.00421294
     atom    3 type  2   force =     0.00000000    0.01380638    0.00421301
     atom    4 type  2   force =     0.00000000   -0.01380628    0.00421280
     atom    5 type  2   force =     0.00000000    0.00118137    0.00462007
     atom    6 type  2   force =     0.00000000   -0.00118145    0.00462003
     atom    7 type  2   force =     0.00000000    0.00118134    0.00462009
     atom    8 type  2   force =     0.00000000   -0.00118143    0.00462004
     atom    9 type  1   force =     0.00000000   -0.01273552   -0.01674777
     atom   10 type  1   force =     0.00000000    0.01273553   -0.01674761
     atom   11 type  1   force =     0.00000000   -0.01273551   -0.01674763
     atom   12 type  1   force =     0.00000000    0.01273553   -0.01674748
     atom   13 type  1   force =     0.00000000    0.00419296    0.01231439
     atom   14 type  1   force =     0.00000000   -0.00419303    0.01231443
     atom   15 type  1   force =     0.00000000    0.00419294    0.01231439
     atom   16 type  1   force =     0.00000000   -0.00419305    0.01231444
     atom   17 type  1   force =    -0.02474186   -0.00347965   -0.00219992
     atom   18 type  1   force =     0.02474176    0.00347970   -0.00219989
     atom   19 type  1   force =    -0.02474176    0.00347970   -0.00219989
     atom   20 type  1   force =     0.02474186   -0.00347965   -0.00219992
     atom   21 type  1   force =    -0.02474189   -0.00347964   -0.00219993
     atom   22 type  1   force =     0.02474179    0.00347968   -0.00219991
     atom   23 type  1   force =    -0.02474179    0.00347968   -0.00219991
     atom   24 type  1   force =     0.02474189   -0.00347964   -0.00219993

     Total force =     0.091678     Total SCF correction =     0.000253


     Computing stress (Cartesian axis) and pressure

          total   stress  (Ry/bohr**3)                   (kbar)     P=      -26.05
  -0.00025292   0.00000000   0.00000000          -37.21        0.00        0.00
   0.00000000  -0.00010601   0.00000000            0.00      -15.59        0.00
   0.00000000   0.00000000  -0.00017226            0.00        0.00      -25.34

     Energy error            =      5.7E-02 Ry
     Gradient error          =      2.5E-02 Ry/Bohr

     number of scf cycles    =   2
     number of bfgs steps    =   1

     energy             old  =    -278.6377437857 Ry
     energy             new  =    -278.6951326692 Ry

     CASE: energy            _new < energy            _old

     new trust radius        =       0.0266389595 bohr
     new conv_thr            =       0.0000000247 Ry


ATOMIC_POSITIONS (crystal)
O                0.0000000000        0.6590599405        0.0629524536
O                0.0000000000        0.3409400652        0.5629524507
O                0.5000000000        0.1590599417        0.0629524514
O                0.5000000000        0.8409400669        0.5629524471
O                0.5000000000        0.8283710295        0.9358167221
O                0.5000000000        0.1716289763        0.4358166936
O                0.0000000000        0.3283710257        0.9358167228
O                0.0000000000        0.6716289775        0.4358166939
H                0.0000000000        0.6623109387        0.1922478433
H                0.0000000000        0.3376890624        0.6922478455
H                0.5000000000        0.1623109383        0.1922478469
H                0.5000000000        0.8376890625        0.6922478477
H                0.0000000000        0.5436433152        0.0221273172
H                0.0000000000        0.4563566827        0.5221273123
H                0.5000000000        0.0436433180        0.0221273183
H                0.5000000000        0.9563566814        0.5221273134
H                0.6728534860        0.7732119781        0.9824278515
H                0.3271465203        0.2267880164        0.4824278444
H                0.6728534797        0.2267880164        0.4824278444
H                0.3271465140        0.7732119781        0.9824278515
H                0.1728534880        0.2732119773        0.9824278524
H                0.8271465199        0.7267880170        0.4824278449
H                0.1728534801        0.7267880170        0.4824278449
H                0.8271465120        0.2732119773        0.9824278524



     Writing config-only to output data dir ./iceIh_vdw/iceIh_vdw.save/ :
     XML data file
     NEW-OLD atomic charge density approx. for the potential

     total cpu time spent up to now is      307.7 secs

     per-process dynamical memory:    67.6 Mb

     Self-consistent Calculation

     iteration #  1     ecut=    90.00 Ry     beta= 0.70
     Davidson diagonalization with overlap
     ethr =  1.00E-06,  avg # of iterations =  4.5

     total cpu time spent up to now is      323.9 secs

     total energy              =    -278.70116029 Ry
     estimated scf accuracy    <       0.00082539 Ry

     iteration #  2     ecut=    90.00 Ry     beta= 0.70
     Davidson diagonalization with overlap
     ethr =  1.29E-06,  avg # of iterations =  3.0

     total cpu time spent up to now is      337.0 secs

     total energy              =    -278.70136921 Ry
     estimated scf accuracy    <       0.00036533 Ry

     iteration #  3     ecut=    90.00 Ry     beta= 0.70
     Davidson diagonalization with overlap
     ethr =  5.71E-07,  avg # of iterations =  2.0

     total cpu time spent up to now is      347.1 secs

     total energy              =    -278.70143300 Ry
     estimated scf accuracy    <       0.00000786 Ry

     iteration #  4     ecut=    90.00 Ry     beta= 0.70
     Davidson diagonalization with overlap
     ethr =  1.23E-08,  avg # of iterations =  4.1

     total cpu time spent up to now is      362.9 secs

     total energy              =    -278.70143918 Ry
     estimated scf accuracy    <       0.00001475 Ry

     iteration #  5     ecut=    90.00 Ry     beta= 0.70
     Davidson diagonalization with overlap
     ethr =  1.23E-08,  avg # of iterations =  2.1

     total cpu time spent up to now is      373.7 secs

     total energy              =    -278.70144019 Ry
     estimated scf accuracy    <       0.00000111 Ry

     iteration #  6     ecut=    90.00 Ry     beta= 0.70
     Davidson diagonalization with overlap
     ethr =  1.74E-09,  avg # of iterations =  3.1

     total cpu time spent up to now is      387.2 secs

     total energy              =    -278.70144081 Ry
     estimated scf accuracy    <       0.00000048 Ry

     iteration #  7     ecut=    90.00 Ry     beta= 0.70
     Davidson diagonalization with overlap
     ethr =  7.43E-10,  avg # of iterations =  2.0

     total cpu time spent up to now is      396.3 secs

     total energy              =    -278.70144080 Ry
     estimated scf accuracy    <       0.00000012 Ry

     iteration #  8     ecut=    90.00 Ry     beta= 0.70
     Davidson diagonalization with overlap
     ethr =  1.89E-10,  avg # of iterations =  2.0

     total cpu time spent up to now is      406.6 secs

     End of self-consistent calculation

     Number of k-points >= 100: set verbosity='high' to print the bands.

     highest occupied level (ev):    -4.4431

!    total energy              =    -278.70144082 Ry
     estimated scf accuracy    <          3.7E-09 Ry

     The total energy is the sum of the following terms:
     one-electron contribution =    -253.08539693 Ry
     hartree contribution      =     146.08869178 Ry
     xc contribution           =     -70.40333670 Ry
     ewald contribution        =    -101.30139897 Ry

     convergence has been achieved in   8 iterations

     Forces acting on atoms (cartesian axes, Ry/au):

     atom    1 type  2   force =     0.00000000    0.01648292   -0.00977343
     atom    2 type  2   force =     0.00000000   -0.01648301   -0.00977334
     atom    3 type  2   force =     0.00000000    0.01648295   -0.00977335
     atom    4 type  2   force =     0.00000000   -0.01648307   -0.00977324
     atom    5 type  2   force =     0.00000000    0.00863880   -0.00146123
     atom    6 type  2   force =     0.00000000   -0.00863880   -0.00146120
     atom    7 type  2   force =     0.00000000    0.00863881   -0.00146124
     atom    8 type  2   force =     0.00000000   -0.00863880   -0.00146119
     atom    9 type  1   force =     0.00000000   -0.00927411    0.00188179
     atom   10 type  1   force =     0.00000000    0.00927413    0.00188172
     atom   11 type  1   force =     0.00000000   -0.00927411    0.00188172
     atom   12 type  1   force =     0.00000000    0.00927413    0.00188165
     atom   13 type  1   force =     0.00000000   -0.00285350    0.00732779
     atom   14 type  1   force =     0.00000000    0.00285357    0.00732778
     atom   15 type  1   force =     0.00000000   -0.00285352    0.00732778
     atom   16 type  1   force =     0.00000000    0.00285362    0.00732776
     atom   17 type  1   force =    -0.01117253   -0.00667766    0.00101253
     atom   18 type  1   force =     0.01117252    0.00667767    0.00101252
     atom   19 type  1   force =    -0.01117252    0.00667767    0.00101252
     atom   20 type  1   force =     0.01117253   -0.00667766    0.00101253
     atom   21 type  1   force =    -0.01117253   -0.00667767    0.00101254
     atom   22 type  1   force =     0.01117252    0.00667767    0.00101252
     atom   23 type  1   force =    -0.01117252    0.00667767    0.00101252
     atom   24 type  1   force =     0.01117253   -0.00667767    0.00101254

     Total force =     0.061196     Total SCF correction =     0.000049


     Computing stress (Cartesian axis) and pressure

          total   stress  (Ry/bohr**3)                   (kbar)     P=      -14.53
  -0.00016179   0.00000000   0.00000000          -23.80        0.00        0.00
   0.00000000  -0.00005882  -0.00000000            0.00       -8.65       -0.00
   0.00000000  -0.00000000  -0.00007563            0.00       -0.00      -11.13

     Energy error            =      6.3E-03 Ry
     Gradient error          =      1.6E-02 Ry/Bohr

     number of scf cycles    =   3
     number of bfgs steps    =   2

     energy             old  =    -278.6951326692 Ry
     energy             new  =    -278.7014408176 Ry

     CASE: energy            _new < energy            _old

     new trust radius        =       0.0388525465 bohr
     new conv_thr            =       0.0000000165 Ry


ATOMIC_POSITIONS (crystal)
O                0.0000000000        0.6606979045        0.0619370445
O                0.0000000000        0.3393020926        0.5619370480
O                0.5000000000        0.1606979095        0.0619370470
O                0.5000000000        0.8393020898        0.5619370499
O                0.5000000000        0.8296853215        0.9356877046
O                0.5000000000        0.1703146819        0.4356876790
O                0.0000000000        0.3296853181        0.9356877053
O                0.0000000000        0.6703146836        0.4356876800
H                0.0000000000        0.6607184163        0.1914218525
H                0.0000000000        0.3392815874        0.6914218498
H                0.5000000000        0.1607184162        0.1914218536
H                0.5000000000        0.8392815875        0.6914218485
H                0.0000000000        0.5442892897        0.0238530094
H                0.0000000000        0.4557107141        0.5238530038
H                0.5000000000        0.0442892892        0.0238530091
H                0.5000000000        0.9557107172        0.5238530032
H                0.6688697013        0.7721811277        0.9825502135
H                0.3311302974        0.2278188680        0.4825502053
H                0.6688697026        0.2278188680        0.4825502053
H                0.3311302987        0.7721811277        0.9825502135
H                0.1688697017        0.2721811266        0.9825502147
H                0.8311302988        0.7278188682        0.4825502054
H                0.1688697012        0.7278188682        0.4825502054
H                0.8311302983        0.2721811266        0.9825502147



     Writing config-only to output data dir ./iceIh_vdw/iceIh_vdw.save/ :
     XML data file
     NEW-OLD atomic charge density approx. for the potential

     total cpu time spent up to now is      418.1 secs

     per-process dynamical memory:    67.6 Mb

     Self-consistent Calculation

     iteration #  1     ecut=    90.00 Ry     beta= 0.70
     Davidson diagonalization with overlap
     ethr =  1.00E-06,  avg # of iterations =  5.5

     total cpu time spent up to now is      437.8 secs

     total energy              =    -278.70622686 Ry
     estimated scf accuracy    <       0.00076794 Ry

     iteration #  2     ecut=    90.00 Ry     beta= 0.70
     Davidson diagonalization with overlap
     ethr =  1.20E-06,  avg # of iterations =  2.0

     total cpu time spent up to now is      447.9 secs

     total energy              =    -278.70633056 Ry
     estimated scf accuracy    <       0.00011595 Ry

     iteration #  3     ecut=    90.00 Ry     beta= 0.70
     Davidson diagonalization with overlap
     ethr =  1.81E-07,  avg # of iterations =  2.8

     total cpu time spent up to now is      459.6 secs

     total energy              =    -278.70636243 Ry
     estimated scf accuracy    <       0.00002723 Ry

     iteration #  4     ecut=    90.00 Ry     beta= 0.70
     Davidson diagonalization with overlap
     ethr =  4.26E-08,  avg # of iterations =  2.0

     total cpu time spent up to now is      468.6 secs

     total energy              =    -278.70636543 Ry
     estimated scf accuracy    <       0.00000118 Ry

     iteration #  5     ecut=    90.00 Ry     beta= 0.70
     Davidson diagonalization with overlap
     ethr =  1.85E-09,  avg # of iterations =  4.9

     total cpu time spent up to now is      483.8 secs

     total energy              =    -278.70636588 Ry
     estimated scf accuracy    <       0.00000213 Ry

     iteration #  6     ecut=    90.00 Ry     beta= 0.70
     Davidson diagonalization with overlap
     ethr =  1.85E-09,  avg # of iterations =  3.0

     total cpu time spent up to now is      495.8 secs

     End of self-consistent calculation

     Number of k-points >= 100: set verbosity='high' to print the bands.

     highest occupied level (ev):    -4.4577

!    total energy              =    -278.70636631 Ry
     estimated scf accuracy    <          8.0E-09 Ry

     The total energy is the sum of the following terms:
     one-electron contribution =    -253.46187946 Ry
     hartree contribution      =     146.24518410 Ry
     xc contribution           =     -70.43638521 Ry
     ewald contribution        =    -101.05328574 Ry

     convergence has been achieved in   6 iterations

     Forces acting on atoms (cartesian axes, Ry/au):

     atom    1 type  2   force =     0.00000000    0.00509554   -0.00191855
     atom    2 type  2   force =     0.00000000   -0.00509543   -0.00191866
     atom    3 type  2   force =     0.00000000    0.00509546   -0.00191859
     atom    4 type  2   force =     0.00000000   -0.00509535   -0.00191872
     atom    5 type  2   force =     0.00000000    0.00755429   -0.00079738
     atom    6 type  2   force =     0.00000000   -0.00755426   -0.00079733
     atom    7 type  2   force =     0.00000000    0.00755431   -0.00079739
     atom    8 type  2   force =     0.00000000   -0.00755428   -0.00079735
     atom    9 type  1   force =     0.00000000   -0.00147572    0.00096756
     atom   10 type  1   force =     0.00000000    0.00147572    0.00096763
     atom   11 type  1   force =     0.00000000   -0.00147572    0.00096758
     atom   12 type  1   force =     0.00000000    0.00147572    0.00096767
     atom   13 type  1   force =     0.00000000   -0.00000370    0.00054516
     atom   14 type  1   force =     0.00000000    0.00000359    0.00054519
     atom   15 type  1   force =     0.00000000   -0.00000363    0.00054518
     atom   16 type  1   force =     0.00000000    0.00000351    0.00054521
     atom   17 type  1   force =     0.00237048   -0.00530107    0.00060161
     atom   18 type  1   force =    -0.00237046    0.00530106    0.00060159
     atom   19 type  1   force =     0.00237046    0.00530106    0.00060159
     atom   20 type  1   force =    -0.00237048   -0.00530107    0.00060161
     atom   21 type  1   force =     0.00237049   -0.00530108    0.00060161
     atom   22 type  1   force =    -0.00237047    0.00530107    0.00060160
     atom   23 type  1   force =     0.00237047    0.00530107    0.00060160
     atom   24 type  1   force =    -0.00237049   -0.00530108    0.00060161

     Total force =     0.025213     Total SCF correction =     0.000224


     Computing stress (Cartesian axis) and pressure

          total   stress  (Ry/bohr**3)                   (kbar)     P=       -9.94
  -0.00007700   0.00000000   0.00000000          -11.33        0.00        0.00
   0.00000000  -0.00005883   0.00000000            0.00       -8.65        0.00
   0.00000000   0.00000000  -0.00006697            0.00        0.00       -9.85

     Energy error            =      4.9E-03 Ry
     Gradient error          =      7.6E-03 Ry/Bohr

     number of scf cycles    =   4
     number of bfgs steps    =   3

     energy             old  =    -278.7014408176 Ry
     energy             new  =    -278.7063663088 Ry

     CASE: energy            _new < energy            _old

     new trust radius        =       0.0113002337 bohr
     new conv_thr            =       0.0000000076 Ry


ATOMIC_POSITIONS (crystal)
O                0.0000000000        0.6612783492        0.0617630415
O                0.0000000000        0.3387216564        0.5617630342
O                0.5000000000        0.1612783485        0.0617630392
O                0.5000000000        0.8387216601        0.5617630294
O                0.5000000000        0.8304185036        0.9356551875
O                0.5000000000        0.1695815011        0.4356551659
O                0.0000000000        0.3304185007        0.9356551873
O                0.0000000000        0.6695815015        0.4356551654
H                0.0000000000        0.6603273994        0.1911726054
H                0.0000000000        0.3396726047        0.6911726103
H                0.5000000000        0.1603273997        0.1911726096
H                0.5000000000        0.8396726046        0.6911726134
H                0.0000000000        0.5444946855        0.0242264897
H                0.0000000000        0.4555053094        0.5242264871
H                0.5000000000        0.0444946902        0.0242264908
H                0.5000000000        0.9555053066        0.5242264884
H                0.6683600386        0.7716344553        0.9825913569
H                0.3316399610        0.2283655398        0.4825913474
H                0.6683600390        0.2283655398        0.4825913474
H                0.3316399614        0.7716344553        0.9825913569
H                0.1683600392        0.2716344537        0.9825913583
H                0.8316399609        0.7283655406        0.4825913479
H                0.1683600391        0.7283655406        0.4825913479
H                0.8316399608        0.2716344537        0.9825913583



     Writing config-only to output data dir ./iceIh_vdw/iceIh_vdw.save/ :
     XML data file
     NEW-OLD atomic charge density approx. for the potential

     total cpu time spent up to now is      507.2 secs

     per-process dynamical memory:    67.6 Mb

     Self-consistent Calculation

     iteration #  1     ecut=    90.00 Ry     beta= 0.70
     Davidson diagonalization with overlap
     ethr =  1.00E-06,  avg # of iterations =  4.0

     total cpu time spent up to now is      522.7 secs

     total energy              =    -278.70676321 Ry
     estimated scf accuracy    <       0.00016990 Ry

     iteration #  2     ecut=    90.00 Ry     beta= 0.70
     Davidson diagonalization with overlap
     ethr =  2.65E-07,  avg # of iterations =  3.0

     total cpu time spent up to now is      534.7 secs

     total energy              =    -278.70680050 Ry
     estimated scf accuracy    <       0.00006240 Ry

     iteration #  3     ecut=    90.00 Ry     beta= 0.70
     Davidson diagonalization with overlap
     ethr =  9.75E-08,  avg # of iterations =  2.4

     total cpu time spent up to now is      545.1 secs

     total energy              =    -278.70681385 Ry
     estimated scf accuracy    <       0.00000198 Ry

     iteration #  4     ecut=    90.00 Ry     beta= 0.70
     Davidson diagonalization with overlap
     ethr =  3.10E-09,  avg # of iterations =  4.4

     total cpu time spent up to now is      559.4 secs

     total energy              =    -278.70681422 Ry
     estimated scf accuracy    <       0.00000230 Ry

     iteration #  5     ecut=    90.00 Ry     beta= 0.70
     Davidson diagonalization with overlap
     ethr =  3.10E-09,  avg # of iterations =  2.0

     total cpu time spent up to now is      569.9 secs

     total energy              =    -278.70681460 Ry
     estimated scf accuracy    <       0.00000011 Ry

     iteration #  6     ecut=    90.00 Ry     beta= 0.70
     Davidson diagonalization with overlap
     ethr =  1.66E-10,  avg # of iterations =  4.6

     total cpu time spent up to now is      585.5 secs

     total energy              =    -278.70681466 Ry
     estimated scf accuracy    <       0.00000020 Ry

     iteration #  7     ecut=    90.00 Ry     beta= 0.70
     Davidson diagonalization with overlap
     ethr =  1.66E-10,  avg # of iterations =  2.6

     total cpu time spent up to now is      596.9 secs

     total energy              =    -278.70681468 Ry
     estimated scf accuracy    <          8.2E-09 Ry

     iteration #  8     ecut=    90.00 Ry     beta= 0.70
     Davidson diagonalization with overlap
     ethr =  1.29E-11,  avg # of iterations =  3.7

     total cpu time spent up to now is      610.7 secs

     End of self-consistent calculation

     Number of k-points >= 100: set verbosity='high' to print the bands.

     highest occupied level (ev):    -4.4613

!    total energy              =    -278.70681468 Ry
     estimated scf accuracy    <          1.8E-09 Ry

     The total energy is the sum of the following terms:
     one-electron contribution =    -253.23858130 Ry
     hartree contribution      =     146.13895221 Ry
     xc contribution           =     -70.41365884 Ry
     ewald contribution        =    -101.19352674 Ry

     convergence has been achieved in   8 iterations

     Forces acting on atoms (cartesian axes, Ry/au):

     atom    1 type  2   force =     0.00000000    0.00034525   -0.00212533
     atom    2 type  2   force =     0.00000000   -0.00034539   -0.00212513
     atom    3 type  2   force =     0.00000000    0.00034532   -0.00212523
     atom    4 type  2   force =     0.00000000   -0.00034549   -0.00212500
     atom    5 type  2   force =     0.00000000   -0.00000531    0.00449509
     atom    6 type  2   force =     0.00000000    0.00000530    0.00449511
     atom    7 type  2   force =     0.00000000   -0.00000530    0.00449510
     atom    8 type  2   force =     0.00000000    0.00000530    0.00449512
     atom    9 type  1   force =     0.00000000    0.00064591    0.00239603
     atom   10 type  1   force =     0.00000000   -0.00064591    0.00239588
     atom   11 type  1   force =     0.00000000    0.00064591    0.00239596
     atom   12 type  1   force =     0.00000000   -0.00064591    0.00239579
     atom   13 type  1   force =     0.00000000    0.00221389   -0.00077056
     atom   14 type  1   force =     0.00000000   -0.00221376   -0.00077060
     atom   15 type  1   force =     0.00000000    0.00221382   -0.00077058
     atom   16 type  1   force =     0.00000000   -0.00221367   -0.00077063
     atom   17 type  1   force =     0.00050304   -0.00124524   -0.00199762
     atom   18 type  1   force =    -0.00050304    0.00124524   -0.00199763
     atom   19 type  1   force =     0.00050304    0.00124524   -0.00199763
     atom   20 type  1   force =    -0.00050304   -0.00124524   -0.00199762
     atom   21 type  1   force =     0.00050304   -0.00124524   -0.00199762
     atom   22 type  1   force =    -0.00050303    0.00124524   -0.00199763
     atom   23 type  1   force =     0.00050303    0.00124524   -0.00199763
     atom   24 type  1   force =    -0.00050304   -0.00124524   -0.00199762

     Total force =     0.013868     Total SCF correction =     0.000029


     Computing stress (Cartesian axis) and pressure

          total   stress  (Ry/bohr**3)                   (kbar)     P=      -11.72
  -0.00009081   0.00000000   0.00000000          -13.36        0.00        0.00
   0.00000000  -0.00008047  -0.00000000            0.00      -11.84       -0.00
   0.00000000  -0.00000000  -0.00006771            0.00       -0.00       -9.96

     Energy error            =      4.5E-04 Ry
     Gradient error          =      4.5E-03 Ry/Bohr

     number of scf cycles    =   5
     number of bfgs steps    =   4

     energy             old  =    -278.7063663088 Ry
     energy             new  =    -278.7068146832 Ry

     CASE: energy            _new < energy            _old

     new trust radius        =       0.0053287224 bohr
     new conv_thr            =       0.0000000045 Ry


ATOMIC_POSITIONS (crystal)
O                0.0000000000        0.6614367501        0.0615860715
O                0.0000000000        0.3385632481        0.5615860763
O                0.5000000000        0.1614367530        0.0615860753
O                0.5000000000        0.8385632468        0.5615860790
O                0.5000000000        0.8305770750        0.9359824788
O                0.5000000000        0.1694229294        0.4359824597
O                0.0000000000        0.3305770725        0.9359824789
O                0.0000000000        0.6694229298        0.4359824596
H                0.0000000000        0.6602820695        0.1912743273
H                0.0000000000        0.3397179347        0.6912743235
H                0.5000000000        0.1602820699        0.1912743270
H                0.5000000000        0.8397179347        0.6912743212
H                0.0000000000        0.5446925137        0.0242547181
H                0.0000000000        0.4553074879        0.5242547131
H                0.5000000000        0.0446925149        0.0242547180
H                0.5000000000        0.9553074899        0.5242547128
H                0.6682922586        0.7714280824        0.9824512204
H                0.3317077417        0.2285719131        0.4824512103
H                0.6682922583        0.2285719131        0.4824512103
H                0.3317077414        0.7714280824        0.9824512204
H                0.1682922589        0.2714280808        0.9824512218
H                0.8317077418        0.7285719138        0.4824512106
H                0.1682922582        0.7285719138        0.4824512106
H                0.8317077411        0.2714280808        0.9824512218



     Writing config-only to output data dir ./iceIh_vdw/iceIh_vdw.save/ :
     XML data file
     NEW-OLD atomic charge density approx. for the potential

     total cpu time spent up to now is      622.2 secs

     per-process dynamical memory:    67.6 Mb

     Self-consistent Calculation

     iteration #  1     ecut=    90.00 Ry     beta= 0.70
     Davidson diagonalization with overlap
     ethr =  1.00E-06,  avg # of iterations =  3.0

     Threshold (ethr) on eigenvalues was too large:
     Diagonalizing with lowered threshold

     Davidson diagonalization with overlap
     ethr =  4.52E-08,  avg # of iterations =  2.0

     total cpu time spent up to now is      644.1 secs

     total energy              =    -278.70696910 Ry
     estimated scf accuracy    <       0.00003120 Ry

     iteration #  2     ecut=    90.00 Ry     beta= 0.70
     Davidson diagonalization with overlap
     ethr =  4.87E-08,  avg # of iterations =  2.7

     total cpu time spent up to now is      655.4 secs

     total energy              =    -278.70697469 Ry
     estimated scf accuracy    <       0.00000680 Ry

     iteration #  3     ecut=    90.00 Ry     beta= 0.70
     Davidson diagonalization with overlap
     ethr =  1.06E-08,  avg # of iterations =  2.9

     total cpu time spent up to now is      667.0 secs

     total energy              =    -278.70697649 Ry
     estimated scf accuracy    <       0.00000050 Ry

     iteration #  4     ecut=    90.00 Ry     beta= 0.70
     Davidson diagonalization with overlap
     ethr =  7.80E-10,  avg # of iterations =  2.1

     total cpu time spent up to now is      676.2 secs

     total energy              =    -278.70697653 Ry
     estimated scf accuracy    <       0.00000007 Ry

     iteration #  5     ecut=    90.00 Ry     beta= 0.70
     Davidson diagonalization with overlap
     ethr =  1.03E-10,  avg # of iterations =  3.3

     total cpu time spent up to now is      688.6 secs

     total energy              =    -278.70697655 Ry
     estimated scf accuracy    <       0.00000002 Ry

     iteration #  6     ecut=    90.00 Ry     beta= 0.70
     Davidson diagonalization with overlap
     ethr =  2.82E-11,  avg # of iterations =  2.1

     total cpu time spent up to now is      698.2 secs

     End of self-consistent calculation

     Number of k-points >= 100: set verbosity='high' to print the bands.

     highest occupied level (ev):    -4.4615

!    total energy              =    -278.70697656 Ry
     estimated scf accuracy    <          2.0E-09 Ry

     The total energy is the sum of the following terms:
     one-electron contribution =    -253.20729589 Ry
     hartree contribution      =     146.12496701 Ry
     xc contribution           =     -70.41034796 Ry
     ewald contribution        =    -101.21429971 Ry

     convergence has been achieved in   6 iterations

     Forces acting on atoms (cartesian axes, Ry/au):

     atom    1 type  2   force =     0.00000000    0.00094986    0.00192078
     atom    2 type  2   force =     0.00000000   -0.00094978    0.00192066
     atom    3 type  2   force =     0.00000000    0.00094982    0.00192072
     atom    4 type  2   force =     0.00000000   -0.00094973    0.00192058
     atom    5 type  2   force =     0.00000000   -0.00026849    0.00384933
     atom    6 type  2   force =     0.00000000    0.00026846    0.00384933
     atom    7 type  2   force =     0.00000000   -0.00026849    0.00384933
     atom    8 type  2   force =     0.00000000    0.00026847    0.00384933
     atom    9 type  1   force =     0.00000000    0.00108678   -0.00078138
     atom   10 type  1   force =     0.00000000   -0.00108678   -0.00078128
     atom   11 type  1   force =     0.00000000    0.00108678   -0.00078133
     atom   12 type  1   force =     0.00000000   -0.00108678   -0.00078122
     atom   13 type  1   force =     0.00000000    0.00101665   -0.00141231
     atom   14 type  1   force =     0.00000000   -0.00101673   -0.00141229
     atom   15 type  1   force =     0.00000000    0.00101668   -0.00141230
     atom   16 type  1   force =     0.00000000   -0.00101677   -0.00141227
     atom   17 type  1   force =     0.00080570   -0.00104243   -0.00178821
     atom   18 type  1   force =    -0.00080571    0.00104244   -0.00178821
     atom   19 type  1   force =     0.00080571    0.00104244   -0.00178821
     atom   20 type  1   force =    -0.00080570   -0.00104243   -0.00178821
     atom   21 type  1   force =     0.00080570   -0.00104243   -0.00178821
     atom   22 type  1   force =    -0.00080571    0.00104244   -0.00178821
     atom   23 type  1   force =     0.00080571    0.00104244   -0.00178821
     atom   24 type  1   force =    -0.00080570   -0.00104243   -0.00178821

     Total force =     0.011691     Total SCF correction =     0.000054


     Computing stress (Cartesian axis) and pressure

          total   stress  (Ry/bohr**3)                   (kbar)     P=      -11.96
  -0.00008808   0.00000000   0.00000000          -12.96        0.00        0.00
   0.00000000  -0.00007526   0.00000000            0.00      -11.07        0.00
   0.00000000   0.00000000  -0.00008058            0.00        0.00      -11.85

     Energy error            =      1.6E-04 Ry
     Gradient error          =      3.8E-03 Ry/Bohr

     number of scf cycles    =   6
     number of bfgs steps    =   5

     energy             old  =    -278.7068146832 Ry
     energy             new  =    -278.7069765559 Ry

     CASE: energy            _new < energy            _old

     new trust radius        =       0.0058615946 bohr
     new conv_thr            =       0.0000000016 Ry


ATOMIC_POSITIONS (crystal)
O                0.0000000000        0.6616113530        0.0615604387
O                0.0000000000        0.3383886451        0.5615604434
O                0.5000000000        0.1616113556        0.0615604427
O                0.5000000000        0.8383886438        0.5615604462
O                0.5000000000        0.8307042011        0.9363642746
O                0.5000000000        0.1692958019        0.4363642572
O                0.0000000000        0.3307041988        0.9363642748
O                0.0000000000        0.6692958024        0.4363642573
H                0.0000000000        0.6603009305        0.1913121176
H                0.0000000000        0.3396990738        0.6913121143
H                0.5000000000        0.1603009311        0.1913121171
H                0.5000000000        0.8396990738        0.6913121120
H                0.0000000000        0.5448498858        0.0241983432
H                0.0000000000        0.4551501156        0.5241983381
H                0.5000000000        0.0448498867        0.0241983429
H                0.5000000000        0.9551501178        0.5241983377
H                0.6683545832        0.7712243018        0.9822824307
H                0.3316454169        0.2287756944        0.4822824205
H                0.6683545831        0.2287756944        0.4822824205
H                0.3316454168        0.7712243018        0.9822824307
H                0.1683545834        0.2712243002        0.9822824321
H                0.8316454170        0.7287756950        0.4822824208
H                0.1683545830        0.7287756950        0.4822824208
H                0.8316454166        0.2712243002        0.9822824321



     Writing config-only to output data dir ./iceIh_vdw/iceIh_vdw.save/ :
     XML data file
     NEW-OLD atomic charge density approx. for the potential

     total cpu time spent up to now is      709.6 secs

     per-process dynamical memory:    67.6 Mb

     Self-consistent Calculation

     iteration #  1     ecut=    90.00 Ry     beta= 0.70
     Davidson diagonalization with overlap
     ethr =  1.00E-06,  avg # of iterations =  3.0

     Threshold (ethr) on eigenvalues was too large:
     Diagonalizing with lowered threshold

     Davidson diagonalization with overlap
     ethr =  3.59E-08,  avg # of iterations =  2.1

     total cpu time spent up to now is      731.9 secs

     total energy              =    -278.70712245 Ry
     estimated scf accuracy    <       0.00002626 Ry

     iteration #  2     ecut=    90.00 Ry     beta= 0.70
     Davidson diagonalization with overlap
     ethr =  4.10E-08,  avg # of iterations =  2.0

     total cpu time spent up to now is      742.2 secs

     total energy              =    -278.70712652 Ry
     estimated scf accuracy    <       0.00000413 Ry

     iteration #  3     ecut=    90.00 Ry     beta= 0.70
     Davidson diagonalization with overlap
     ethr =  6.46E-09,  avg # of iterations =  2.2

     total cpu time spent up to now is      753.4 secs

     total energy              =    -278.70712767 Ry
     estimated scf accuracy    <       0.00000056 Ry

     iteration #  4     ecut=    90.00 Ry     beta= 0.70
     Davidson diagonalization with overlap
     ethr =  8.82E-10,  avg # of iterations =  2.0

     negative rho (up, down):  1.062E-08 0.000E+00

     total cpu time spent up to now is      762.5 secs

     total energy              =    -278.70712772 Ry
     estimated scf accuracy    <       0.00000004 Ry

     iteration #  5     ecut=    90.00 Ry     beta= 0.70
     Davidson diagonalization with overlap
     ethr =  6.80E-11,  avg # of iterations =  3.6

     negative rho (up, down):  1.091E-08 0.000E+00

     total cpu time spent up to now is      776.1 secs

     total energy              =    -278.70712774 Ry
     estimated scf accuracy    <       0.00000004 Ry

     iteration #  6     ecut=    90.00 Ry     beta= 0.70
     Davidson diagonalization with overlap
     ethr =  5.83E-11,  avg # of iterations =  2.6

     negative rho (up, down):  1.090E-08 0.000E+00

     total cpu time spent up to now is      786.4 secs

     End of self-consistent calculation

     Number of k-points >= 100: set verbosity='high' to print the bands.

     highest occupied level (ev):    -4.4627

!    total energy              =    -278.70712774 Ry
     estimated scf accuracy    <          1.3E-09 Ry

     The total energy is the sum of the following terms:
     one-electron contribution =    -253.18656316 Ry
     hartree contribution      =     146.11605050 Ry
     xc contribution           =     -70.40802546 Ry
     ewald contribution        =    -101.22858962 Ry

     convergence has been achieved in   6 iterations

     Forces acting on atoms (cartesian axes, Ry/au):

     atom    1 type  2   force =     0.00000000    0.00041533    0.00259668
     atom    2 type  2   force =     0.00000000   -0.00041526    0.00259656
     atom    3 type  2   force =     0.00000000    0.00041530    0.00259661
     atom    4 type  2   force =     0.00000000   -0.00041521    0.00259648
     atom    5 type  2   force =     0.00000000   -0.00043793    0.00315251
     atom    6 type  2   force =     0.00000000    0.00043791    0.00315251
     atom    7 type  2   force =     0.00000000   -0.00043794    0.00315251
     atom    8 type  2   force =     0.00000000    0.00043792    0.00315251
     atom    9 type  1   force =     0.00000000    0.00121251   -0.00150471
     atom   10 type  1   force =     0.00000000   -0.00121251   -0.00150461
     atom   11 type  1   force =     0.00000000    0.00121251   -0.00150466
     atom   12 type  1   force =     0.00000000   -0.00121251   -0.00150456
     atom   13 type  1   force =     0.00000000    0.00114452   -0.00129284
     atom   14 type  1   force =     0.00000000   -0.00114459   -0.00129282
     atom   15 type  1   force =     0.00000000    0.00114455   -0.00129283
     atom   16 type  1   force =     0.00000000   -0.00114464   -0.00129280
     atom   17 type  1   force =     0.00067878   -0.00084996   -0.00147582
     atom   18 type  1   force =    -0.00067879    0.00084997   -0.00147582
     atom   19 type  1   force =     0.00067879    0.00084997   -0.00147582
     atom   20 type  1   force =    -0.00067878   -0.00084996   -0.00147582
     atom   21 type  1   force =     0.00067878   -0.00084996   -0.00147582
     atom   22 type  1   force =    -0.00067879    0.00084997   -0.00147582
     atom   23 type  1   force =     0.00067879    0.00084997   -0.00147582
     atom   24 type  1   force =    -0.00067878   -0.00084996   -0.00147582

     Total force =     0.011042     Total SCF correction =     0.000047


     Computing stress (Cartesian axis) and pressure

          total   stress  (Ry/bohr**3)                   (kbar)     P=      -12.20
  -0.00008820   0.00000000   0.00000000          -12.97        0.00        0.00
   0.00000000  -0.00007622   0.00000000            0.00      -11.21        0.00
   0.00000000   0.00000000  -0.00008442            0.00        0.00      -12.42

     Energy error            =      1.5E-04 Ry
     Gradient error          =      3.2E-03 Ry/Bohr

     number of scf cycles    =   7
     number of bfgs steps    =   6

     energy             old  =    -278.7069765559 Ry
     energy             new  =    -278.7071277411 Ry

     CASE: energy            _new < energy            _old

     new trust radius        =       0.0087923919 bohr
     new conv_thr            =       0.0000000015 Ry


ATOMIC_POSITIONS (crystal)
O                0.0000000000        0.6618233300        0.0615879924
O                0.0000000000        0.3381766667        0.5615879994
O                0.5000000000        0.1618233333        0.0615879970
O                0.5000000000        0.8381766645        0.5615880031
O                0.5000000000        0.8308649940        0.9369472644
O                0.5000000000        0.1691350077        0.4369472501
O                0.0000000000        0.3308649918        0.9369472648
O                0.0000000000        0.6691350082        0.4369472503
H                0.0000000000        0.6603758607        0.1913319775
H                0.0000000000        0.3396241437        0.6913319734
H                0.5000000000        0.1603758614        0.1913319766
H                0.5000000000        0.8396241439        0.6913319703
H                0.0000000000        0.5451183348        0.0240848989
H                0.0000000000        0.4548816675        0.5240848935
H                0.5000000000        0.0451183351        0.0240848986
H                0.5000000000        0.9548816702        0.5240848930
H                0.6684912818        0.7709230098        0.9820239502
H                0.3315087187        0.2290769874        0.4820239397
H                0.6684912813        0.2290769874        0.4820239397
H                0.3315087182        0.7709230098        0.9820239502
H                0.1684912817        0.2709230082        0.9820239515
H                0.8315087187        0.7290769880        0.4820239399
H                0.1684912813        0.7290769880        0.4820239399
H                0.8315087183        0.2709230082        0.9820239515



     Writing config-only to output data dir ./iceIh_vdw/iceIh_vdw.save/ :
     XML data file
     NEW-OLD atomic charge density approx. for the potential

     total cpu time spent up to now is      797.8 secs

     per-process dynamical memory:    67.6 Mb

     Self-consistent Calculation

     iteration #  1     ecut=    90.00 Ry     beta= 0.70
     Davidson diagonalization with overlap
     ethr =  1.00E-06,  avg # of iterations =  3.1

     Threshold (ethr) on eigenvalues was too large:
     Diagonalizing with lowered threshold

     Davidson diagonalization with overlap
     ethr =  7.45E-08,  avg # of iterations =  2.0

     negative rho (up, down):  4.428E-08 0.000E+00

     total cpu time spent up to now is      820.4 secs

     total energy              =    -278.70730599 Ry
     estimated scf accuracy    <       0.00005319 Ry

     iteration #  2     ecut=    90.00 Ry     beta= 0.70
     Davidson diagonalization with overlap
     ethr =  8.31E-08,  avg # of iterations =  2.0

     negative rho (up, down):  5.336E-08 0.000E+00

     total cpu time spent up to now is      830.2 secs

     total energy              =    -278.70731337 Ry
     estimated scf accuracy    <       0.00000539 Ry

     iteration #  3     ecut=    90.00 Ry     beta= 0.70
     Davidson diagonalization with overlap
     ethr =  8.42E-09,  avg # of iterations =  3.0

     negative rho (up, down):  5.636E-08 0.000E+00

     total cpu time spent up to now is      842.3 secs

     total energy              =    -278.70731480 Ry
     estimated scf accuracy    <       0.00000209 Ry

     iteration #  4     ecut=    90.00 Ry     beta= 0.70
     Davidson diagonalization with overlap
     ethr =  3.27E-09,  avg # of iterations =  2.5

     negative rho (up, down):  5.798E-08 0.000E+00

     total cpu time spent up to now is      852.3 secs

     total energy              =    -278.70731517 Ry
     estimated scf accuracy    <       0.00000005 Ry

     iteration #  5     ecut=    90.00 Ry     beta= 0.70
     Davidson diagonalization with overlap
     ethr =  8.23E-11,  avg # of iterations =  6.0

     negative rho (up, down):  5.814E-08 0.000E+00

     total cpu time spent up to now is      869.2 secs

     total energy              =    -278.70731519 Ry
     estimated scf accuracy    <       0.00000013 Ry

     iteration #  6     ecut=    90.00 Ry     beta= 0.70
     Davidson diagonalization with overlap
     ethr =  8.23E-11,  avg # of iterations =  3.0

     negative rho (up, down):  5.814E-08 0.000E+00

     total cpu time spent up to now is      881.2 secs

     total energy              =    -278.70731521 Ry
     estimated scf accuracy    <          4.4E-09 Ry

     iteration #  7     ecut=    90.00 Ry     beta= 0.70
     Davidson diagonalization with overlap
     ethr =  6.94E-12,  avg # of iterations =  4.0

     negative rho (up, down):  5.815E-08 0.000E+00

     total cpu time spent up to now is      895.5 secs

     total energy              =    -278.70731521 Ry
     estimated scf accuracy    <          1.8E-09 Ry

     iteration #  8     ecut=    90.00 Ry     beta= 0.70
     Davidson diagonalization with overlap
     ethr =  2.88E-12,  avg # of iterations =  2.0

     negative rho (up, down):  5.815E-08 0.000E+00

     total cpu time spent up to now is      903.8 secs

     End of self-consistent calculation

     Number of k-points >= 100: set verbosity='high' to print the bands.

     highest occupied level (ev):    -4.4662

!    total energy              =    -278.70731521 Ry
     estimated scf accuracy    <          5.8E-10 Ry

     The total energy is the sum of the following terms:
     one-electron contribution =    -253.19132926 Ry
     hartree contribution      =     146.11948841 Ry
     xc contribution           =     -70.40809314 Ry
     ewald contribution        =    -101.22738122 Ry

     convergence has been achieved in   8 iterations

     Forces acting on atoms (cartesian axes, Ry/au):

     atom    1 type  2   force =     0.00000000    0.00046506    0.00239559
     atom    2 type  2   force =     0.00000000   -0.00046496    0.00239541
     atom    3 type  2   force =     0.00000000    0.00046501    0.00239550
     atom    4 type  2   force =     0.00000000   -0.00046489    0.00239531
     atom    5 type  2   force =     0.00000000   -0.00064869    0.00207895
     atom    6 type  2   force =     0.00000000    0.00064867    0.00207894
     atom    7 type  2   force =     0.00000000   -0.00064869    0.00207895
     atom    8 type  2   force =     0.00000000    0.00064867    0.00207894
     atom    9 type  1   force =     0.00000000    0.00115313   -0.00144937
     atom   10 type  1   force =     0.00000000   -0.00115313   -0.00144924
     atom   11 type  1   force =     0.00000000    0.00115313   -0.00144931
     atom   12 type  1   force =     0.00000000   -0.00115313   -0.00144916
     atom   13 type  1   force =     0.00000000    0.00070924   -0.00105900
     atom   14 type  1   force =     0.00000000   -0.00070934   -0.00105896
     atom   15 type  1   force =     0.00000000    0.00070928   -0.00105898
     atom   16 type  1   force =     0.00000000   -0.00070941   -0.00105894
     atom   17 type  1   force =     0.00032518   -0.00058023   -0.00098308
     atom   18 type  1   force =    -0.00032519    0.00058024   -0.00098307
     atom   19 type  1   force =     0.00032519    0.00058024   -0.00098307
     atom   20 type  1   force =    -0.00032518   -0.00058023   -0.00098308
     atom   21 type  1   force =     0.00032518   -0.00058023   -0.00098308
     atom   22 type  1   force =    -0.00032519    0.00058024   -0.00098307
     atom   23 type  1   force =     0.00032519    0.00058024   -0.00098307
     atom   24 type  1   force =    -0.00032518   -0.00058023   -0.00098308

     Total force =     0.008618     Total SCF correction =     0.000024


     Computing stress (Cartesian axis) and pressure

          total   stress  (Ry/bohr**3)                   (kbar)     P=      -12.24
  -0.00008904   0.00000000   0.00000000          -13.10        0.00        0.00
   0.00000000  -0.00007523   0.00000000            0.00      -11.07        0.00
   0.00000000   0.00000000  -0.00008536            0.00        0.00      -12.56

     Energy error            =      1.9E-04 Ry
     Gradient error          =      2.4E-03 Ry/Bohr

     number of scf cycles    =   8
     number of bfgs steps    =   7

     energy             old  =    -278.7071277411 Ry
     energy             new  =    -278.7073152103 Ry

     CASE: energy            _new < energy            _old

     new trust radius        =       0.0131885879 bohr
     new conv_thr            =       0.0000000019 Ry


ATOMIC_POSITIONS (crystal)
O                0.0000000000        0.6621602464        0.0616832074
O                0.0000000000        0.3378397547        0.5616832070
O                0.5000000000        0.1621602474        0.0616832085
O                0.5000000000        0.8378397554        0.5616832063
O                0.5000000000        0.8310557368        0.9378357460
O                0.5000000000        0.1689442619        0.4378357352
O                0.0000000000        0.3310557350        0.9378357461
O                0.0000000000        0.6689442624        0.4378357352
H                0.0000000000        0.6605487009        0.1913485319
H                0.0000000000        0.3394513037        0.6913485344
H                0.5000000000        0.1605487016        0.1913485336
H                0.5000000000        0.8394513040        0.6913485346
H                0.0000000000        0.5455217993        0.0238737313
H                0.0000000000        0.4544781979        0.5238737277
H                0.5000000000        0.0455218017        0.0238737319
H                0.5000000000        0.9544781974        0.5238737281
H                0.6687005824        0.7704648024        0.9816294074
H                0.3312994175        0.2295351966        0.4816293972
H                0.6687005825        0.2295351966        0.4816293972
H                0.3312994176        0.7704648024        0.9816294074
H                0.1687005823        0.2704648008        0.9816294086
H                0.8312994174        0.7295351970        0.4816293972
H                0.1687005826        0.7295351970        0.4816293972
H                0.8312994177        0.2704648008        0.9816294086



     Writing config-only to output data dir ./iceIh_vdw/iceIh_vdw.save/ :
     XML data file
     NEW-OLD atomic charge density approx. for the potential

     negative rho (up, down):  4.841E-08 0.000E+00

     total cpu time spent up to now is      915.2 secs

     per-process dynamical memory:    67.6 Mb

     Self-consistent Calculation

     iteration #  1     ecut=    90.00 Ry     beta= 0.70
     Davidson diagonalization with overlap
     ethr =  1.00E-06,  avg # of iterations =  4.0

     negative rho (up, down):  9.908E-08 0.000E+00

     total cpu time spent up to now is      930.6 secs

     total energy              =    -278.70744997 Ry
     estimated scf accuracy    <       0.00011605 Ry

     iteration #  2     ecut=    90.00 Ry     beta= 0.70
     Davidson diagonalization with overlap
     ethr =  1.81E-07,  avg # of iterations =  2.0

     negative rho (up, down):  1.129E-07 0.000E+00

     total cpu time spent up to now is      940.5 secs

     total energy              =    -278.70746681 Ry
     estimated scf accuracy    <       0.00001382 Ry

     iteration #  3     ecut=    90.00 Ry     beta= 0.70
     Davidson diagonalization with overlap
     ethr =  2.16E-08,  avg # of iterations =  3.0

     negative rho (up, down):  1.176E-07 0.000E+00

     total cpu time spent up to now is      952.5 secs

     total energy              =    -278.70747036 Ry
     estimated scf accuracy    <       0.00000486 Ry

     iteration #  4     ecut=    90.00 Ry     beta= 0.70
     Davidson diagonalization with overlap
     ethr =  7.59E-09,  avg # of iterations =  2.1

     negative rho (up, down):  1.197E-07 0.000E+00

     total cpu time spent up to now is      962.7 secs

     total energy              =    -278.70747121 Ry
     estimated scf accuracy    <       0.00000013 Ry

     iteration #  5     ecut=    90.00 Ry     beta= 0.70
     Davidson diagonalization with overlap
     ethr =  1.95E-10,  avg # of iterations =  6.0

     negative rho (up, down):  1.198E-07 0.000E+00

     total cpu time spent up to now is      979.8 secs

     total energy              =    -278.70747124 Ry
     estimated scf accuracy    <       0.00000031 Ry

     iteration #  6     ecut=    90.00 Ry     beta= 0.70
     Davidson diagonalization with overlap
     ethr =  1.95E-10,  avg # of iterations =  3.5

     negative rho (up, down):  1.198E-07 0.000E+00

     total cpu time spent up to now is      992.7 secs

     total energy              =    -278.70747131 Ry
     estimated scf accuracy    <          2.7E-09 Ry

     iteration #  7     ecut=    90.00 Ry     beta= 0.70
     Davidson diagonalization with overlap
     ethr =  4.26E-12,  avg # of iterations =  4.2

     negative rho (up, down):  1.198E-07 0.000E+00

     total cpu time spent up to now is     1007.3 secs

     total energy              =    -278.70747131 Ry
     estimated scf accuracy    <          3.7E-09 Ry

     iteration #  8     ecut=    90.00 Ry     beta= 0.70
     Davidson diagonalization with overlap
     ethr =  4.26E-12,  avg # of iterations =  2.0

     negative rho (up, down):  1.198E-07 0.000E+00

     total cpu time spent up to now is     1016.2 secs

     End of self-consistent calculation

     Number of k-points >= 100: set verbosity='high' to print the bands.

     highest occupied level (ev):    -4.4714

!    total energy              =    -278.70747131 Ry
     estimated scf accuracy    <          9.2E-10 Ry

     The total energy is the sum of the following terms:
     one-electron contribution =    -253.20841666 Ry
     hartree contribution      =     146.12910765 Ry
     xc contribution           =     -70.40920763 Ry
     ewald contribution        =    -101.21895467 Ry

     convergence has been achieved in   8 iterations

     Forces acting on atoms (cartesian axes, Ry/au):

     atom    1 type  2   force =     0.00000000    0.00009041    0.00094624
     atom    2 type  2   force =     0.00000000   -0.00009045    0.00094629
     atom    3 type  2   force =     0.00000000    0.00009043    0.00094625
     atom    4 type  2   force =     0.00000000   -0.00009046    0.00094631
     atom    5 type  2   force =     0.00000000   -0.00072512    0.00036257
     atom    6 type  2   force =     0.00000000    0.00072513    0.00036258
     atom    7 type  2   force =     0.00000000   -0.00072512    0.00036257
     atom    8 type  2   force =     0.00000000    0.00072513    0.00036258
     atom    9 type  1   force =     0.00000000    0.00088786   -0.00063985
     atom   10 type  1   force =     0.00000000   -0.00088787   -0.00063988
     atom   11 type  1   force =     0.00000000    0.00088786   -0.00063986
     atom   12 type  1   force =     0.00000000   -0.00088787   -0.00063990
     atom   13 type  1   force =     0.00000000    0.00058239   -0.00036586
     atom   14 type  1   force =     0.00000000   -0.00058235   -0.00036587
     atom   15 type  1   force =     0.00000000    0.00058237   -0.00036586
     atom   16 type  1   force =     0.00000000   -0.00058234   -0.00036587
     atom   17 type  1   force =    -0.00011131   -0.00028318   -0.00015156
     atom   18 type  1   force =     0.00011131    0.00028318   -0.00015156
     atom   19 type  1   force =    -0.00011131    0.00028318   -0.00015156
     atom   20 type  1   force =     0.00011131   -0.00028318   -0.00015156
     atom   21 type  1   force =    -0.00011131   -0.00028318   -0.00015156
     atom   22 type  1   force =     0.00011131    0.00028318   -0.00015156
     atom   23 type  1   force =    -0.00011131    0.00028318   -0.00015156
     atom   24 type  1   force =     0.00011131   -0.00028318   -0.00015156

     Total force =     0.003722     Total SCF correction =     0.000040


     Computing stress (Cartesian axis) and pressure

          total   stress  (Ry/bohr**3)                   (kbar)     P=      -12.23
  -0.00008963   0.00000000   0.00000000          -13.19        0.00        0.00
   0.00000000  -0.00007576  -0.00000000            0.00      -11.14       -0.00
   0.00000000  -0.00000000  -0.00008407            0.00       -0.00      -12.37

     Energy error            =      1.6E-04 Ry
     Gradient error          =      9.5E-04 Ry/Bohr

     number of scf cycles    =   9
     number of bfgs steps    =   8

     energy             old  =    -278.7073152103 Ry
     energy             new  =    -278.7074713115 Ry

     CASE: energy            _new < energy            _old

     new trust radius        =       0.0044884404 bohr
     new conv_thr            =       0.0000000010 Ry


ATOMIC_POSITIONS (crystal)
O                0.0000000000        0.6622807766        0.0617338002
O                0.0000000000        0.3377192203        0.5617338063
O                0.5000000000        0.1622807793        0.0617338034
O                0.5000000000        0.8377192187        0.5617338086
O                0.5000000000        0.8310773873        0.9381450533
O                0.5000000000        0.1689226116        0.4381450448
O                0.0000000000        0.3310773855        0.9381450537
O                0.0000000000        0.6689226120        0.4381450448
H                0.0000000000        0.6606667464        0.1913480084
H                0.0000000000        0.3393332580        0.6913480062
H                0.5000000000        0.1606667471        0.1913480085
H                0.5000000000        0.8393332583        0.6913480044
H                0.0000000000        0.5457016323        0.0237838561
H                0.0000000000        0.4542983688        0.5237838512
H                0.5000000000        0.0457016329        0.0237838562
H                0.5000000000        0.9542983705        0.5237838509
H                0.6687613538        0.7702851869        0.9814946560
H                0.3312386472        0.2297148122        0.4814946457
H                0.6687613528        0.2297148122        0.4814946457
H                0.3312386462        0.7702851869        0.9814946560
H                0.1687613535        0.2702851855        0.9814946571
H                0.8312386471        0.7297148126        0.4814946457
H                0.1687613529        0.7297148126        0.4814946457
H                0.8312386465        0.2702851855        0.9814946571



     Writing config-only to output data dir ./iceIh_vdw/iceIh_vdw.save/ :
     XML data file
     NEW-OLD atomic charge density approx. for the potential

     negative rho (up, down):  1.159E-07 0.000E+00

     total cpu time spent up to now is     1027.5 secs

     per-process dynamical memory:    67.6 Mb

     Self-consistent Calculation

     iteration #  1     ecut=    90.00 Ry     beta= 0.70
     Davidson diagonalization with overlap
     ethr =  1.00E-06,  avg # of iterations =  3.0

     Threshold (ethr) on eigenvalues was too large:
     Diagonalizing with lowered threshold

     Davidson diagonalization with overlap
     ethr =  2.05E-08,  avg # of iterations =  3.1

     negative rho (up, down):  1.323E-07 0.000E+00

     total cpu time spent up to now is     1050.4 secs

     total energy              =    -278.70748734 Ry
     estimated scf accuracy    <       0.00001674 Ry

     iteration #  2     ecut=    90.00 Ry     beta= 0.70
     Davidson diagonalization with overlap
     ethr =  2.62E-08,  avg # of iterations =  2.0

     negative rho (up, down):  1.360E-07 0.000E+00

     total cpu time spent up to now is     1060.0 secs

     total energy              =    -278.70748982 Ry
     estimated scf accuracy    <       0.00000156 Ry

     iteration #  3     ecut=    90.00 Ry     beta= 0.70
     Davidson diagonalization with overlap
     ethr =  2.44E-09,  avg # of iterations =  3.0

     negative rho (up, down):  1.374E-07 0.000E+00

     total cpu time spent up to now is     1071.9 secs

     total energy              =    -278.70749022 Ry
     estimated scf accuracy    <       0.00000049 Ry

     iteration #  4     ecut=    90.00 Ry     beta= 0.70
     Davidson diagonalization with overlap
     ethr =  7.70E-10,  avg # of iterations =  3.0

     negative rho (up, down):  1.380E-07 0.000E+00

     total cpu time spent up to now is     1082.4 secs

     total energy              =    -278.70749032 Ry
     estimated scf accuracy    <       0.00000001 Ry

     iteration #  5     ecut=    90.00 Ry     beta= 0.70
     Davidson diagonalization with overlap
     ethr =  1.93E-11,  avg # of iterations =  4.4

     negative rho (up, down):  1.381E-07 0.000E+00

     total cpu time spent up to now is     1095.9 secs

     total energy              =    -278.70749033 Ry
     estimated scf accuracy    <          7.9E-09 Ry

     iteration #  6     ecut=    90.00 Ry     beta= 0.70
     Davidson diagonalization with overlap
     ethr =  1.24E-11,  avg # of iterations =  2.0

     negative rho (up, down):  1.380E-07 0.000E+00

     total cpu time spent up to now is     1105.1 secs

     End of self-consistent calculation

     Number of k-points >= 100: set verbosity='high' to print the bands.

     highest occupied level (ev):    -4.4740

!    total energy              =    -278.70749033 Ry
     estimated scf accuracy    <          7.5E-10 Ry

     The total energy is the sum of the following terms:
     one-electron contribution =    -253.23260590 Ry
     hartree contribution      =     146.14070184 Ry
     xc contribution           =     -70.41138873 Ry
     ewald contribution        =    -101.20419754 Ry

     convergence has been achieved in   6 iterations

     Forces acting on atoms (cartesian axes, Ry/au):

     atom    1 type  2   force =     0.00000000    0.00031596    0.00014111
     atom    2 type  2   force =     0.00000000   -0.00031587    0.00014098
     atom    3 type  2   force =     0.00000000    0.00031592    0.00014106
     atom    4 type  2   force =     0.00000000   -0.00031582    0.00014091
     atom    5 type  2   force =     0.00000000   -0.00058560   -0.00034256
     atom    6 type  2   force =     0.00000000    0.00058559   -0.00034257
     atom    7 type  2   force =     0.00000000   -0.00058560   -0.00034256
     atom    8 type  2   force =     0.00000000    0.00058559   -0.00034257
     atom    9 type  1   force =     0.00000000    0.00066760   -0.00009821
     atom   10 type  1   force =     0.00000000   -0.00066760   -0.00009811
     atom   11 type  1   force =     0.00000000    0.00066760   -0.00009817
     atom   12 type  1   force =     0.00000000   -0.00066760   -0.00009807
     atom   13 type  1   force =     0.00000000    0.00025912   -0.00008264
     atom   14 type  1   force =     0.00000000   -0.00025921   -0.00008261
     atom   15 type  1   force =     0.00000000    0.00025915   -0.00008263
     atom   16 type  1   force =     0.00000000   -0.00025925   -0.00008260
     atom   17 type  1   force =    -0.00014242   -0.00025821    0.00019115
     atom   18 type  1   force =     0.00014241    0.00025821    0.00019116
     atom   19 type  1   force =    -0.00014241    0.00025821    0.00019116
     atom   20 type  1   force =     0.00014242   -0.00025821    0.00019115
     atom   21 type  1   force =    -0.00014242   -0.00025821    0.00019115
     atom   22 type  1   force =     0.00014241    0.00025821    0.00019116
     atom   23 type  1   force =    -0.00014241    0.00025821    0.00019116
     atom   24 type  1   force =     0.00014242   -0.00025821    0.00019115

     Total force =     0.002329     Total SCF correction =     0.000043


     Computing stress (Cartesian axis) and pressure

          total   stress  (Ry/bohr**3)                   (kbar)     P=      -12.07
  -0.00008893   0.00000000   0.00000000          -13.08        0.00        0.00
   0.00000000  -0.00007474   0.00000000            0.00      -10.99        0.00
   0.00000000   0.00000000  -0.00008256            0.00        0.00      -12.15

     Energy error            =      1.9E-05 Ry
     Gradient error          =      6.7E-04 Ry/Bohr

     bfgs converged in  10 scf cycles and   9 bfgs steps
     (criteria: energy <  1.0E-04 Ry, force <  1.0E-03 Ry/Bohr)

     End of BFGS Geometry Optimization

     Final energy             =    -278.7074903266 Ry

     File ./iceIh_vdw/iceIh_vdw.bfgs deleted, as requested
Begin final coordinates

ATOMIC_POSITIONS (crystal)
O                0.0000000000        0.6622807766        0.0617338002
O                0.0000000000        0.3377192203        0.5617338063
O                0.5000000000        0.1622807793        0.0617338034
O                0.5000000000        0.8377192187        0.5617338086
O                0.5000000000        0.8310773873        0.9381450533
O                0.5000000000        0.1689226116        0.4381450448
O                0.0000000000        0.3310773855        0.9381450537
O                0.0000000000        0.6689226120        0.4381450448
H                0.0000000000        0.6606667464        0.1913480084
H                0.0000000000        0.3393332580        0.6913480062
H                0.5000000000        0.1606667471        0.1913480085
H                0.5000000000        0.8393332583        0.6913480044
H                0.0000000000        0.5457016323        0.0237838561
H                0.0000000000        0.4542983688        0.5237838512
H                0.5000000000        0.0457016329        0.0237838562
H                0.5000000000        0.9542983705        0.5237838509
H                0.6687613538        0.7702851869        0.9814946560
H                0.3312386472        0.2297148122        0.4814946457
H                0.6687613528        0.2297148122        0.4814946457
H                0.3312386462        0.7702851869        0.9814946560
H                0.1687613535        0.2702851855        0.9814946571
H                0.8312386471        0.7297148126        0.4814946457
H                0.1687613529        0.7297148126        0.4814946457
H                0.8312386465        0.2702851855        0.9814946571
End final coordinates



     Writing all to output data dir ./iceIh_vdw/iceIh_vdw.save/ :
     XML data file, charge density, pseudopotentials, collected wavefunctions

     init_run     :      6.63s CPU      6.81s WALL (       1 calls)
     electrons    :    981.34s CPU    996.59s WALL (      10 calls)
     update_pot   :      0.68s CPU      0.75s WALL (       9 calls)
     forces       :      6.81s CPU      6.84s WALL (      10 calls)
     stress       :    102.88s CPU    102.99s WALL (      10 calls)

     Called by init_run:
     wfcinit      :      4.49s CPU      4.58s WALL (       1 calls)
     potinit      :      1.59s CPU      1.63s WALL (       1 calls)
     hinit0       :      0.47s CPU      0.48s WALL (       1 calls)

     Called by electrons:
     c_bands      :    874.24s CPU    886.98s WALL (      82 calls)
     sum_band     :    100.92s CPU    101.93s WALL (      82 calls)
     v_of_rho     :      7.74s CPU      8.46s WALL (      88 calls)
     newd         :      0.23s CPU      0.26s WALL (      88 calls)
     mix_rho      :      0.18s CPU      0.18s WALL (      82 calls)
     vdW_kernel   :      1.51s CPU      1.52s WALL (       1 calls)

     Called by c_bands:
     init_us_2    :     13.64s CPU     14.11s WALL (   21275 calls)
     cegterg      :    840.73s CPU    847.64s WALL (    9430 calls)

     Called by *egterg:
     cdiaghg      :     64.95s CPU     65.18s WALL (   37219 calls)
     h_psi        :    629.00s CPU    635.16s WALL (   38829 calls)
     s_psi        :     26.91s CPU     27.07s WALL (   38829 calls)
     g_psi        :      2.38s CPU      2.39s WALL (   29284 calls)

     Called by h_psi:
     h_psi:calbec :     47.78s CPU     48.20s WALL (   38829 calls)
     vloc_psi     :    547.38s CPU    552.76s WALL (   38829 calls)
     add_vuspsi   :     28.65s CPU     28.89s WALL (   38829 calls)

     General routines
     calbec       :     63.44s CPU     63.99s WALL (   54009 calls)
     fft          :      3.79s CPU      3.88s WALL (    5901 calls)
     ffts         :      0.05s CPU      0.05s WALL (      82 calls)
     fftw         :    568.65s CPU    574.11s WALL ( 2273842 calls)

     Parallel routines

     PWSCF        :  18m23.50s CPU  18m49.04s WALL


   This run was terminated on:   4:53:43   2Apr2026            

=------------------------------------------------------------------------------=
   JOB DONE.
=------------------------------------------------------------------------------=
