
     Program PWSCF v.7.3.1 starts on 26Mar2026 at 18:58:23 

     This program is part of the open-source Quantum ESPRESSO suite
     for quantum simulation of materials; please cite
         "P. Giannozzi et al., J. Phys.:Condens. Matter 21 395502 (2009);
         "P. Giannozzi et al., J. Phys.:Condens. Matter 29 465901 (2017);
         "P. Giannozzi et al., J. Chem. Phys. 152 154105 (2020);
          URL http://www.quantum-espresso.org", 
     in publications or presentations arising from this work. More details at
     http://www.quantum-espresso.org/quote

     Parallel version (MPI), running on   128 processors

     MPI processes distributed on     1 nodes
     235658 MiB available memory on the printing compute node when the environment starts

     Waiting for input...
     Reading input from standard input

     Current dimensions of program PWSCF are:
     Max number of different atomic species (ntypx) = 10
     Max number of k-points (npk) =  40000
     Max angular momentum in pseudopotentials (lmaxx) =  4

     IMPORTANT: XC functional enforced from input :
     Exchange-correlation= VDW-DF2
                           (   1   4  13   0   2   0   0)
     Any further DFT definition will be discarded
     Please, verify this is what you really want

     Found identity + ( -0.5000 -0.5000 -0.0000) symmetry
     This is a supercell, fractional translations are disabled

     K-points division:     npool     =       4
     R & G space division:  proc/nbgrp/npool/nimage =      32
     Subspace diagonalization in iterative solution of the eigenvalue problem:
     a serial algorithm will be used


     Parallelization info
     --------------------
     sticks:   dense  smooth     PW     G-vecs:    dense   smooth      PW
     Min         124     124     34                 7322     7322    1050
     Max         125     125     35                 7325     7325    1055
     Sum        3995    3995   1097               234335   234335   33655

     Using Slab Decomposition



     bravais-lattice index     =            8
     lattice parameter (alat)  =       8.9670  a.u.
     unit-cell volume          =    2032.7900 (a.u.)^3
     number of atoms/cell      =           24
     number of atomic types    =            2
     number of electrons       =        64.00
     number of Kohn-Sham states=           32
     kinetic-energy cutoff     =      90.0000  Ry
     charge density cutoff     =     360.0000  Ry
     scf convergence threshold =      1.0E-07
     mixing beta               =       0.7000
     number of iterations used =            8  plain     mixing
     Exchange-correlation= VDW-DF2
                           (   1   4  13   0   2   0   0)

     celldm(1)=   8.966954  celldm(2)=   1.732119  celldm(3)=   1.627721
     celldm(4)=   0.000000  celldm(5)=   0.000000  celldm(6)=   0.000000

     crystal axes: (cart. coord. in units of alat)
               a(1) = (   1.000000   0.000000   0.000000 )  
               a(2) = (   0.000000   1.732119   0.000000 )  
               a(3) = (   0.000000   0.000000   1.627721 )  

     reciprocal axes: (cart. coord. in units 2 pi/alat)
               b(1) = (  1.000000  0.000000  0.000000 )  
               b(2) = (  0.000000  0.577328  0.000000 )  
               b(3) = (  0.000000  0.000000  0.614356 )  


     PseudoPot. # 1 for H  read from file:
     ./H.pbe-van_ak.UPF
     MD5 check sum: 077eb6d537518a38cb46c6de387227b7
     Pseudo is Ultrasoft, Zval =  1.0
     Generated by new atomic code, or converted to UPF format
     Using radial grid of  615 points,  1 beta functions with: 
                l(1) =   0
     Q(r) pseudized with  8 coefficients,  rinner =    0.800

     PseudoPot. # 2 for O  read from file:
     ./O.pbe-van_ak.UPF
     MD5 check sum: 78c19812648e8988a0fe644b0f25305e
     Pseudo is Ultrasoft, Zval =  6.0
     Generated by new atomic code, or converted to UPF format
     Using radial grid of  737 points,  4 beta functions with: 
                l(1) =   0
                l(2) =   0
                l(3) =   1
                l(4) =   1
     Q(r) pseudized with  8 coefficients,  rinner =    0.800   0.800   0.800


     atomic species   valence    mass     pseudopotential
     H                 1.00     1.00800     H ( 1.00)
     O                 6.00    16.00000     O ( 1.00)

      2 Sym. Ops. (no inversion) found



   Cartesian axes

     site n.     atom                  positions (alat units)
         1        O      tau(   1) = (   0.0000000   1.1505053   0.0983911  )
         2        O      tau(   2) = (   0.0000000   0.5816137   0.9122516  )
         3        O      tau(   3) = (   0.5000000   0.2844458   0.0983911  )
         4        O      tau(   4) = (   0.5000000   1.4476733   0.9122516  )
         5        O      tau(   5) = (   0.5000000   1.4413210   1.5245781  )
         6        O      tau(   6) = (   0.5000000   0.2907980   0.7107175  )
         7        O      tau(   7) = (   0.0000000   0.5752615   1.5245780  )
         8        O      tau(   8) = (   0.0000000   1.1568575   0.7107175  )
         9        H      tau(   9) = (   0.0000000   1.1476935   0.3199225  )
        10        H      tau(  10) = (   0.0000000   0.5844255   1.1337830  )
        11        H      tau(  11) = (   0.5000000   0.2816340   0.3199225  )
        12        H      tau(  12) = (   0.5000000   1.4504851   1.1337830  )
        13        H      tau(  13) = (   0.0000000   0.9389577   0.0320281  )
        14        H      tau(  14) = (   0.0000000   0.7931613   0.8458886  )
        15        H      tau(  15) = (   0.5000000   0.0728982   0.0320281  )
        16        H      tau(  16) = (   0.5000000   1.6592209   0.8458886  )
        17        H      tau(  17) = (   0.6777387   1.3318248   1.5989889  )
        18        H      tau(  18) = (   0.3222613   0.4002942   0.7851284  )
        19        H      tau(  19) = (   0.6777387   0.4002942   0.7851284  )
        20        H      tau(  20) = (   0.3222613   1.3318248   1.5989889  )
        21        H      tau(  21) = (   0.1777387   0.4657653   1.5989889  )
        22        H      tau(  22) = (   0.8222613   1.2663538   0.7851284  )
        23        H      tau(  23) = (   0.1777387   1.2663538   0.7851284  )
        24        H      tau(  24) = (   0.8222613   0.4657653   1.5989889  )

     number of k points=   460

     Number of k-points >= 100: set verbosity='high' to print them.

     Dense  grid:   234335 G-vectors     FFT dimensions: (  60,  96,  90)

     Estimated max dynamical RAM per process >      61.18 MB

     Estimated total dynamical RAM >       7.48 GB

     Initial potential from superposition of free atoms

     starting charge      63.9998, renormalised to      64.0000


     %%%%%%%%%%%%%%%%%%%%%%%%%%%%%%%%%%%%%%%%%%%%%%%%%%%%%%%%%%%%%%%%%%%%%%%%
     %                                                                      %
     % You are using vdW-DF, which was implemented by the Thonhauser group. %
     % Please cite the following two papers that made this development      %
     % possible and the two reviews that describe the various versions:     %
     %                                                                      %
     %   T. Thonhauser et al., PRL 115, 136402 (2015).                      %
     %   T. Thonhauser et al., PRB 76, 125112 (2007).                       %
     %   K. Berland et al., Rep. Prog. Phys. 78, 066501 (2015).             %
     %   D.C. Langreth et al., J. Phys.: Condens. Matter 21, 084203 (2009). %
     %                                                                      %
     % If you are calculating stress with vdW-DF, please also cite:         %
     %                                                                      %
     %   R. Sabatini et al., J. Phys.: Condens. Matter 24, 424209 (2012).   %
     %                                                                      %
     %%%%%%%%%%%%%%%%%%%%%%%%%%%%%%%%%%%%%%%%%%%%%%%%%%%%%%%%%%%%%%%%%%%%%%%%

     %%%%%%%%%%%%%%%%%%%%%%%%%%%%%%%%%%%%%%%%%%%%%%%%%%%%%%%%%%%%%%%%%%%%%%%%
     %                                                                      %
     %  vdW-DF NEWS:                                                        %
     %                                                                      %
     %  * vdW-DF3 is now available. DOI: 10.1021/acs.jctc.0c00471           %
     %    use with input_dft = 'vdW-DF3-opt1' or 'vdW-DF3-opt2'             %
     %                                                                      %
     %  * Unscreened and range-separated hybrid vdW-DF-cx functionals       %
     %    DOI: 10.1063/1.4986522 and 10.1088/1361-648X/ac2ad2               %
     %    use with input_dft = 'vdW-DF-cx0'    and 'vdW-DF-ahcx'            %
     %  * Unscreened and range-separated hybrid vdW-DF2-b86r functionals    %
     %    DOI: 10.1063/1.4986522 and DOI: 10.1103/PhysRevX.12.041003        %
     %    use with input_dft = 'vdW-DF2-br0' and 'vdW-DF2-ahbr'             %
     %                                                                      %
     %%%%%%%%%%%%%%%%%%%%%%%%%%%%%%%%%%%%%%%%%%%%%%%%%%%%%%%%%%%%%%%%%%%%%%%%


     Starting wfcs are   48 randomized atomic wfcs

     total cpu time spent up to now is        7.3 secs

     per-process dynamical memory:    69.4 Mb

     Self-consistent Calculation

     iteration #  1     ecut=    90.00 Ry     beta= 0.70
     Davidson diagonalization with overlap
     ethr =  1.00E-02,  avg # of iterations =  2.0

     total cpu time spent up to now is       17.5 secs

     total energy              =    -277.25275885 Ry
     estimated scf accuracy    <       2.98272184 Ry

     iteration #  2     ecut=    90.00 Ry     beta= 0.70
     Davidson diagonalization with overlap
     ethr =  4.66E-03,  avg # of iterations =  3.0

     total cpu time spent up to now is       31.2 secs

     total energy              =    -278.20267496 Ry
     estimated scf accuracy    <       2.60054551 Ry

     iteration #  3     ecut=    90.00 Ry     beta= 0.70
     Davidson diagonalization with overlap
     ethr =  4.06E-03,  avg # of iterations =  2.0

     total cpu time spent up to now is       41.5 secs

     total energy              =    -278.53457480 Ry
     estimated scf accuracy    <       0.12624885 Ry

     iteration #  4     ecut=    90.00 Ry     beta= 0.70
     Davidson diagonalization with overlap
     ethr =  1.97E-04,  avg # of iterations =  4.0

     total cpu time spent up to now is       57.1 secs

     total energy              =    -278.63186194 Ry
     estimated scf accuracy    <       0.13626276 Ry

     iteration #  5     ecut=    90.00 Ry     beta= 0.70
     Davidson diagonalization with overlap
     ethr =  1.97E-04,  avg # of iterations =  1.8

     total cpu time spent up to now is       65.4 secs

     total energy              =    -278.63222602 Ry
     estimated scf accuracy    <       0.02376537 Ry

     iteration #  6     ecut=    90.00 Ry     beta= 0.70
     Davidson diagonalization with overlap
     ethr =  3.71E-05,  avg # of iterations =  2.0

     total cpu time spent up to now is       75.8 secs

     total energy              =    -278.63693467 Ry
     estimated scf accuracy    <       0.00094531 Ry

     iteration #  7     ecut=    90.00 Ry     beta= 0.70
     Davidson diagonalization with overlap
     ethr =  1.48E-06,  avg # of iterations =  3.9

     total cpu time spent up to now is       88.6 secs

     total energy              =    -278.63773328 Ry
     estimated scf accuracy    <       0.00044675 Ry

     iteration #  8     ecut=    90.00 Ry     beta= 0.70
     Davidson diagonalization with overlap
     ethr =  6.98E-07,  avg # of iterations =  2.0

     total cpu time spent up to now is       97.9 secs

     total energy              =    -278.63759069 Ry
     estimated scf accuracy    <       0.00097615 Ry

     iteration #  9     ecut=    90.00 Ry     beta= 0.70
     Davidson diagonalization with overlap
     ethr =  6.98E-07,  avg # of iterations =  1.0

     total cpu time spent up to now is      105.5 secs

     total energy              =    -278.63740699 Ry
     estimated scf accuracy    <       0.00053892 Ry

     iteration # 10     ecut=    90.00 Ry     beta= 0.70
     Davidson diagonalization with overlap
     ethr =  6.98E-07,  avg # of iterations =  2.0

     total cpu time spent up to now is      115.7 secs

     total energy              =    -278.63744544 Ry
     estimated scf accuracy    <       0.00006367 Ry

     iteration # 11     ecut=    90.00 Ry     beta= 0.70
     Davidson diagonalization with overlap
     ethr =  9.95E-08,  avg # of iterations =  3.0

     total cpu time spent up to now is      127.0 secs

     total energy              =    -278.63746449 Ry
     estimated scf accuracy    <       0.00000165 Ry

     iteration # 12     ecut=    90.00 Ry     beta= 0.70
     Davidson diagonalization with overlap
     ethr =  2.59E-09,  avg # of iterations =  3.3

     total cpu time spent up to now is      140.3 secs

     total energy              =    -278.63746554 Ry
     estimated scf accuracy    <       0.00000210 Ry

     iteration # 13     ecut=    90.00 Ry     beta= 0.70
     Davidson diagonalization with overlap
     ethr =  2.59E-09,  avg # of iterations =  1.7

     total cpu time spent up to now is      148.8 secs

     total energy              =    -278.63746432 Ry
     estimated scf accuracy    <       0.00000264 Ry

     iteration # 14     ecut=    90.00 Ry     beta= 0.70
     Davidson diagonalization with overlap
     ethr =  2.59E-09,  avg # of iterations =  3.0

     total cpu time spent up to now is      160.8 secs

     End of self-consistent calculation

     Number of k-points >= 100: set verbosity='high' to print the bands.

     highest occupied level (ev):    -4.4450

!    total energy              =    -278.63746480 Ry
     estimated scf accuracy    <       0.00000004 Ry

     The total energy is the sum of the following terms:
     one-electron contribution =    -248.89686784 Ry
     hartree contribution      =     144.06445981 Ry
     xc contribution           =     -69.69422420 Ry
     ewald contribution        =    -104.11083257 Ry

     convergence has been achieved in  14 iterations

     Forces acting on atoms (cartesian axes, Ry/au):

     atom    1 type  2   force =     0.00000000   -0.05852476    0.04255232
     atom    2 type  2   force =     0.00000000    0.05852489    0.04255239
     atom    3 type  2   force =     0.00000000   -0.05852510    0.04255251
     atom    4 type  2   force =     0.00000000    0.05852475    0.04255231
     atom    5 type  2   force =     0.00000000   -0.05989578    0.04033842
     atom    6 type  2   force =     0.00000000    0.05989595    0.04033858
     atom    7 type  2   force =     0.00000000   -0.05989596    0.04033862
     atom    8 type  2   force =     0.00000000    0.05989597    0.04033855
     atom    9 type  1   force =     0.00000000   -0.00278796   -0.06729496
     atom   10 type  1   force =     0.00000000    0.00278796   -0.06729505
     atom   11 type  1   force =     0.00000000   -0.00278796   -0.06729494
     atom   12 type  1   force =     0.00000000    0.00278796   -0.06729497
     atom   13 type  1   force =     0.00000000    0.06235050    0.02453537
     atom   14 type  1   force =     0.00000000   -0.06235049    0.02453538
     atom   15 type  1   force =     0.00000000    0.06235045    0.02453537
     atom   16 type  1   force =     0.00000000   -0.06235046    0.02453536
     atom   17 type  1   force =    -0.05686101    0.02965806   -0.02006568
     atom   18 type  1   force =     0.05686097   -0.02965802   -0.02006565
     atom   19 type  1   force =    -0.05686097   -0.02965802   -0.02006565
     atom   20 type  1   force =     0.05686101    0.02965806   -0.02006568
     atom   21 type  1   force =    -0.05686095    0.02965801   -0.02006564
     atom   22 type  1   force =     0.05686101   -0.02965803   -0.02006567
     atom   23 type  1   force =    -0.05686101   -0.02965803   -0.02006567
     atom   24 type  1   force =     0.05686095    0.02965801   -0.02006564

     Total force =     0.337682     Total SCF correction =     0.000226


     Computing stress (Cartesian axis) and pressure

          total   stress  (Ry/bohr**3)                   (kbar)     P=      -72.87
  -0.00050157   0.00000000   0.00000000          -73.78        0.00        0.00
   0.00000000  -0.00049424  -0.00000000            0.00      -72.71       -0.00
   0.00000000  -0.00000000  -0.00049019            0.00       -0.00      -72.11


     Writing all to output data dir ./iceIh/iceIh.save/ :
     XML data file, charge density, pseudopotentials, collected wavefunctions

     init_run     :      6.86s CPU      6.98s WALL (       1 calls)
     electrons    :    151.44s CPU    153.52s WALL (       1 calls)
     forces       :      0.77s CPU      0.79s WALL (       1 calls)
     stress       :     10.67s CPU     10.69s WALL (       1 calls)

     Called by init_run:
     wfcinit      :      4.58s CPU      4.65s WALL (       1 calls)
     potinit      :      1.60s CPU      1.64s WALL (       1 calls)
     hinit0       :      0.56s CPU      0.57s WALL (       1 calls)

     Called by electrons:
     c_bands      :    132.67s CPU    134.43s WALL (      14 calls)
     sum_band     :     17.51s CPU     17.68s WALL (      14 calls)
     v_of_rho     :      2.71s CPU      2.85s WALL (      15 calls)
     newd         :      0.04s CPU      0.04s WALL (      15 calls)
     mix_rho      :      0.05s CPU      0.05s WALL (      14 calls)
     vdW_kernel   :      1.51s CPU      1.52s WALL (       1 calls)

     Called by c_bands:
     init_us_2    :      2.46s CPU      2.54s WALL (    3565 calls)
     cegterg      :    127.42s CPU    128.46s WALL (    1610 calls)

     Called by *egterg:
     cdiaghg      :      9.35s CPU      9.38s WALL (    5572 calls)
     h_psi        :     99.60s CPU    100.58s WALL (    5687 calls)
     s_psi        :      4.22s CPU      4.24s WALL (    5687 calls)
     g_psi        :      0.37s CPU      0.37s WALL (    3962 calls)

     Called by h_psi:
     h_psi:calbec :      7.41s CPU      7.48s WALL (    5687 calls)
     vloc_psi     :     86.75s CPU     87.60s WALL (    5687 calls)
     add_vuspsi   :      4.45s CPU      4.48s WALL (    5687 calls)

     General routines
     calbec       :      9.71s CPU      9.81s WALL (    7872 calls)
     fft          :      1.15s CPU      1.16s WALL (     967 calls)
     ffts         :      0.01s CPU      0.01s WALL (      14 calls)
     fftw         :     90.40s CPU     91.24s WALL (  358872 calls)

     Parallel routines

     PWSCF        :   2m53.81s CPU   3m 1.48s WALL


   This run was terminated on:  19: 1:25  26Mar2026            

=------------------------------------------------------------------------------=
   JOB DONE.
=------------------------------------------------------------------------------=
