
     Program PWSCF v.7.3.1 starts on 26Mar2026 at 19: 1:32 

     This program is part of the open-source Quantum ESPRESSO suite
     for quantum simulation of materials; please cite
         "P. Giannozzi et al., J. Phys.:Condens. Matter 21 395502 (2009);
         "P. Giannozzi et al., J. Phys.:Condens. Matter 29 465901 (2017);
         "P. Giannozzi et al., J. Chem. Phys. 152 154105 (2020);
          URL http://www.quantum-espresso.org", 
     in publications or presentations arising from this work. More details at
     http://www.quantum-espresso.org/quote

     Parallel version (MPI), running on   128 processors

     MPI processes distributed on     1 nodes
     235576 MiB available memory on the printing compute node when the environment starts

     Waiting for input...
     Reading input from standard input

     Current dimensions of program PWSCF are:
     Max number of different atomic species (ntypx) = 10
     Max number of k-points (npk) =  40000
     Max angular momentum in pseudopotentials (lmaxx) =  4

     IMPORTANT: XC functional enforced from input :
     Exchange-correlation= VDW-DF2
                           (   1   4  13   0   2   0   0)
     Any further DFT definition will be discarded
     Please, verify this is what you really want

     Found identity + ( -0.5000 -0.5000 -0.0000) symmetry
     This is a supercell, fractional translations are disabled

     K-points division:     npool     =       4
     R & G space division:  proc/nbgrp/npool/nimage =      32
     Subspace diagonalization in iterative solution of the eigenvalue problem:
     a serial algorithm will be used


     Parallelization info
     --------------------
     sticks:   dense  smooth     PW     G-vecs:    dense   smooth      PW
     Min         124     124     34                 7362     7362    1058
     Max         125     125     35                 7369     7369    1061
     Sum        3999    3999   1109               235775   235775   33903

     Using Slab Decomposition



     bravais-lattice index     =            8
     lattice parameter (alat)  =       8.9840  a.u.
     unit-cell volume          =    2044.3839 (a.u.)^3
     number of atoms/cell      =           24
     number of atomic types    =            2
     number of electrons       =        64.00
     number of Kohn-Sham states=           32
     kinetic-energy cutoff     =      90.0000  Ry
     charge density cutoff     =     360.0000  Ry
     scf convergence threshold =      1.0E-07
     mixing beta               =       0.7000
     number of iterations used =            8  plain     mixing
     Exchange-correlation= VDW-DF2
                           (   1   4  13   0   2   0   0)

     celldm(1)=   8.983969  celldm(2)=   1.732119  celldm(3)=   1.627721
     celldm(4)=   0.000000  celldm(5)=   0.000000  celldm(6)=   0.000000

     crystal axes: (cart. coord. in units of alat)
               a(1) = (   1.000000   0.000000   0.000000 )  
               a(2) = (   0.000000   1.732119   0.000000 )  
               a(3) = (   0.000000   0.000000   1.627721 )  

     reciprocal axes: (cart. coord. in units 2 pi/alat)
               b(1) = (  1.000000  0.000000  0.000000 )  
               b(2) = (  0.000000  0.577328  0.000000 )  
               b(3) = (  0.000000  0.000000  0.614356 )  


     PseudoPot. # 1 for H  read from file:
     ./H.pbe-van_ak.UPF
     MD5 check sum: 077eb6d537518a38cb46c6de387227b7
     Pseudo is Ultrasoft, Zval =  1.0
     Generated by new atomic code, or converted to UPF format
     Using radial grid of  615 points,  1 beta functions with: 
                l(1) =   0
     Q(r) pseudized with  8 coefficients,  rinner =    0.800

     PseudoPot. # 2 for O  read from file:
     ./O.pbe-van_ak.UPF
     MD5 check sum: 78c19812648e8988a0fe644b0f25305e
     Pseudo is Ultrasoft, Zval =  6.0
     Generated by new atomic code, or converted to UPF format
     Using radial grid of  737 points,  4 beta functions with: 
                l(1) =   0
                l(2) =   0
                l(3) =   1
                l(4) =   1
     Q(r) pseudized with  8 coefficients,  rinner =    0.800   0.800   0.800


     atomic species   valence    mass     pseudopotential
     H                 1.00     1.00800     H ( 1.00)
     O                 6.00    16.00000     O ( 1.00)

      2 Sym. Ops. (no inversion) found



   Cartesian axes

     site n.     atom                  positions (alat units)
         1        O      tau(   1) = (   0.0000000   1.1505053   0.0983911  )
         2        O      tau(   2) = (   0.0000000   0.5816137   0.9122516  )
         3        O      tau(   3) = (   0.5000000   0.2844458   0.0983911  )
         4        O      tau(   4) = (   0.5000000   1.4476733   0.9122516  )
         5        O      tau(   5) = (   0.5000000   1.4413210   1.5245781  )
         6        O      tau(   6) = (   0.5000000   0.2907980   0.7107175  )
         7        O      tau(   7) = (   0.0000000   0.5752615   1.5245780  )
         8        O      tau(   8) = (   0.0000000   1.1568575   0.7107175  )
         9        H      tau(   9) = (   0.0000000   1.1476935   0.3199225  )
        10        H      tau(  10) = (   0.0000000   0.5844255   1.1337830  )
        11        H      tau(  11) = (   0.5000000   0.2816340   0.3199225  )
        12        H      tau(  12) = (   0.5000000   1.4504851   1.1337830  )
        13        H      tau(  13) = (   0.0000000   0.9389577   0.0320281  )
        14        H      tau(  14) = (   0.0000000   0.7931613   0.8458886  )
        15        H      tau(  15) = (   0.5000000   0.0728982   0.0320281  )
        16        H      tau(  16) = (   0.5000000   1.6592209   0.8458886  )
        17        H      tau(  17) = (   0.6777387   1.3318248   1.5989889  )
        18        H      tau(  18) = (   0.3222613   0.4002942   0.7851284  )
        19        H      tau(  19) = (   0.6777387   0.4002942   0.7851284  )
        20        H      tau(  20) = (   0.3222613   1.3318248   1.5989889  )
        21        H      tau(  21) = (   0.1777387   0.4657653   1.5989889  )
        22        H      tau(  22) = (   0.8222613   1.2663538   0.7851284  )
        23        H      tau(  23) = (   0.1777387   1.2663538   0.7851284  )
        24        H      tau(  24) = (   0.8222613   0.4657653   1.5989889  )

     number of k points=   460

     Number of k-points >= 100: set verbosity='high' to print them.

     Dense  grid:   235775 G-vectors     FFT dimensions: (  60,  96,  90)

     Estimated max dynamical RAM per process >      61.56 MB

     Estimated total dynamical RAM >       7.53 GB

     Initial potential from superposition of free atoms

     starting charge      63.9998, renormalised to      64.0000


     %%%%%%%%%%%%%%%%%%%%%%%%%%%%%%%%%%%%%%%%%%%%%%%%%%%%%%%%%%%%%%%%%%%%%%%%
     %                                                                      %
     % You are using vdW-DF, which was implemented by the Thonhauser group. %
     % Please cite the following two papers that made this development      %
     % possible and the two reviews that describe the various versions:     %
     %                                                                      %
     %   T. Thonhauser et al., PRL 115, 136402 (2015).                      %
     %   T. Thonhauser et al., PRB 76, 125112 (2007).                       %
     %   K. Berland et al., Rep. Prog. Phys. 78, 066501 (2015).             %
     %   D.C. Langreth et al., J. Phys.: Condens. Matter 21, 084203 (2009). %
     %                                                                      %
     % If you are calculating stress with vdW-DF, please also cite:         %
     %                                                                      %
     %   R. Sabatini et al., J. Phys.: Condens. Matter 24, 424209 (2012).   %
     %                                                                      %
     %%%%%%%%%%%%%%%%%%%%%%%%%%%%%%%%%%%%%%%%%%%%%%%%%%%%%%%%%%%%%%%%%%%%%%%%

     %%%%%%%%%%%%%%%%%%%%%%%%%%%%%%%%%%%%%%%%%%%%%%%%%%%%%%%%%%%%%%%%%%%%%%%%
     %                                                                      %
     %  vdW-DF NEWS:                                                        %
     %                                                                      %
     %  * vdW-DF3 is now available. DOI: 10.1021/acs.jctc.0c00471           %
     %    use with input_dft = 'vdW-DF3-opt1' or 'vdW-DF3-opt2'             %
     %                                                                      %
     %  * Unscreened and range-separated hybrid vdW-DF-cx functionals       %
     %    DOI: 10.1063/1.4986522 and 10.1088/1361-648X/ac2ad2               %
     %    use with input_dft = 'vdW-DF-cx0'    and 'vdW-DF-ahcx'            %
     %  * Unscreened and range-separated hybrid vdW-DF2-b86r functionals    %
     %    DOI: 10.1063/1.4986522 and DOI: 10.1103/PhysRevX.12.041003        %
     %    use with input_dft = 'vdW-DF2-br0' and 'vdW-DF2-ahbr'             %
     %                                                                      %
     %%%%%%%%%%%%%%%%%%%%%%%%%%%%%%%%%%%%%%%%%%%%%%%%%%%%%%%%%%%%%%%%%%%%%%%%


     Starting wfcs are   48 randomized atomic wfcs

     total cpu time spent up to now is        7.2 secs

     per-process dynamical memory:    68.9 Mb

     Self-consistent Calculation

     iteration #  1     ecut=    90.00 Ry     beta= 0.70
     Davidson diagonalization with overlap
     ethr =  1.00E-02,  avg # of iterations =  2.0

     total cpu time spent up to now is       17.5 secs

     total energy              =    -277.24774953 Ry
     estimated scf accuracy    <       2.97738757 Ry

     iteration #  2     ecut=    90.00 Ry     beta= 0.70
     Davidson diagonalization with overlap
     ethr =  4.65E-03,  avg # of iterations =  3.0

     total cpu time spent up to now is       31.3 secs

     total energy              =    -278.19525232 Ry
     estimated scf accuracy    <       2.61401974 Ry

     iteration #  3     ecut=    90.00 Ry     beta= 0.70
     Davidson diagonalization with overlap
     ethr =  4.08E-03,  avg # of iterations =  2.0

     total cpu time spent up to now is       41.5 secs

     total energy              =    -278.52801970 Ry
     estimated scf accuracy    <       0.12767505 Ry

     iteration #  4     ecut=    90.00 Ry     beta= 0.70
     Davidson diagonalization with overlap
     ethr =  1.99E-04,  avg # of iterations =  4.0

     total cpu time spent up to now is       57.1 secs

     total energy              =    -278.62630805 Ry
     estimated scf accuracy    <       0.13669911 Ry

     iteration #  5     ecut=    90.00 Ry     beta= 0.70
     Davidson diagonalization with overlap
     ethr =  1.99E-04,  avg # of iterations =  1.8

     total cpu time spent up to now is       65.5 secs

     total energy              =    -278.62661198 Ry
     estimated scf accuracy    <       0.02395763 Ry

     iteration #  6     ecut=    90.00 Ry     beta= 0.70
     Davidson diagonalization with overlap
     ethr =  3.74E-05,  avg # of iterations =  2.0

     total cpu time spent up to now is       75.9 secs

     total energy              =    -278.63135373 Ry
     estimated scf accuracy    <       0.00093416 Ry

     iteration #  7     ecut=    90.00 Ry     beta= 0.70
     Davidson diagonalization with overlap
     ethr =  1.46E-06,  avg # of iterations =  4.0

     total cpu time spent up to now is       88.9 secs

     total energy              =    -278.63213788 Ry
     estimated scf accuracy    <       0.00044399 Ry

     iteration #  8     ecut=    90.00 Ry     beta= 0.70
     Davidson diagonalization with overlap
     ethr =  6.94E-07,  avg # of iterations =  2.0

     total cpu time spent up to now is       98.1 secs

     total energy              =    -278.63199375 Ry
     estimated scf accuracy    <       0.00094582 Ry

     iteration #  9     ecut=    90.00 Ry     beta= 0.70
     Davidson diagonalization with overlap
     ethr =  6.94E-07,  avg # of iterations =  1.0

     total cpu time spent up to now is      105.7 secs

     total energy              =    -278.63181546 Ry
     estimated scf accuracy    <       0.00051206 Ry

     iteration # 10     ecut=    90.00 Ry     beta= 0.70
     Davidson diagonalization with overlap
     ethr =  6.94E-07,  avg # of iterations =  2.0

     total cpu time spent up to now is      115.9 secs

     total energy              =    -278.63185596 Ry
     estimated scf accuracy    <       0.00005339 Ry

     iteration # 11     ecut=    90.00 Ry     beta= 0.70
     Davidson diagonalization with overlap
     ethr =  8.34E-08,  avg # of iterations =  3.0

     total cpu time spent up to now is      128.4 secs

     total energy              =    -278.63187625 Ry
     estimated scf accuracy    <       0.00000078 Ry

     iteration # 12     ecut=    90.00 Ry     beta= 0.70
     Davidson diagonalization with overlap
     ethr =  1.22E-09,  avg # of iterations =  3.0

     total cpu time spent up to now is      141.6 secs

     total energy              =    -278.63187736 Ry
     estimated scf accuracy    <       0.00000276 Ry

     iteration # 13     ecut=    90.00 Ry     beta= 0.70
     Davidson diagonalization with overlap
     ethr =  1.22E-09,  avg # of iterations =  1.0

     total cpu time spent up to now is      149.2 secs

     total energy              =    -278.63187641 Ry
     estimated scf accuracy    <       0.00000228 Ry

     iteration # 14     ecut=    90.00 Ry     beta= 0.70
     Davidson diagonalization with overlap
     ethr =  1.22E-09,  avg # of iterations =  3.0

     total cpu time spent up to now is      161.7 secs

     End of self-consistent calculation

     Number of k-points >= 100: set verbosity='high' to print the bands.

     highest occupied level (ev):    -4.4625

!    total energy              =    -278.63187669 Ry
     estimated scf accuracy    <       0.00000007 Ry

     The total energy is the sum of the following terms:
     one-electron contribution =    -249.26171040 Ry
     hartree contribution      =     144.20698988 Ry
     xc contribution           =     -69.66350320 Ry
     ewald contribution        =    -103.91365296 Ry

     convergence has been achieved in  14 iterations

     Forces acting on atoms (cartesian axes, Ry/au):

     atom    1 type  2   force =     0.00000000   -0.06017552    0.04389389
     atom    2 type  2   force =     0.00000000    0.06017536    0.04389386
     atom    3 type  2   force =     0.00000000   -0.06017544    0.04389382
     atom    4 type  2   force =     0.00000000    0.06017541    0.04389389
     atom    5 type  2   force =     0.00000000   -0.06157025    0.04153968
     atom    6 type  2   force =     0.00000000    0.06157179    0.04154061
     atom    7 type  2   force =     0.00000000   -0.06157125    0.04154026
     atom    8 type  2   force =     0.00000000    0.06157055    0.04154003
     atom    9 type  1   force =     0.00000000   -0.00288173   -0.06934310
     atom   10 type  1   force =     0.00000000    0.00288160   -0.06934322
     atom   11 type  1   force =     0.00000000   -0.00288170   -0.06934329
     atom   12 type  1   force =     0.00000000    0.00288163   -0.06934310
     atom   13 type  1   force =     0.00000000    0.06424722    0.02526903
     atom   14 type  1   force =     0.00000000   -0.06424730    0.02526900
     atom   15 type  1   force =     0.00000000    0.06424721    0.02526899
     atom   16 type  1   force =     0.00000000   -0.06424739    0.02526906
     atom   17 type  1   force =    -0.05858214    0.03058832   -0.02067999
     atom   18 type  1   force =     0.05858198   -0.03058823   -0.02067986
     atom   19 type  1   force =    -0.05858198   -0.03058823   -0.02067986
     atom   20 type  1   force =     0.05858214    0.03058832   -0.02067999
     atom   21 type  1   force =    -0.05858205    0.03058821   -0.02067992
     atom   22 type  1   force =     0.05858208   -0.03058837   -0.02067994
     atom   23 type  1   force =    -0.05858208   -0.03058837   -0.02067994
     atom   24 type  1   force =     0.05858205    0.03058821   -0.02067992

     Total force =     0.347780     Total SCF correction =     0.000266


     Computing stress (Cartesian axis) and pressure

          total   stress  (Ry/bohr**3)                   (kbar)     P=      -74.79
  -0.00051483   0.00000000   0.00000000          -75.73        0.00        0.00
   0.00000000  -0.00050748  -0.00000000            0.00      -74.65       -0.00
   0.00000000  -0.00000000  -0.00050289            0.00       -0.00      -73.98


     Writing all to output data dir ./iceIh/iceIh.save/ :
     XML data file, charge density, pseudopotentials, collected wavefunctions

     init_run     :      6.80s CPU      6.98s WALL (       1 calls)
     electrons    :    152.33s CPU    154.59s WALL (       1 calls)
     forces       :      0.70s CPU      0.71s WALL (       1 calls)
     stress       :     10.66s CPU     10.69s WALL (       1 calls)

     Called by init_run:
     wfcinit      :      4.56s CPU      4.66s WALL (       1 calls)
     potinit      :      1.58s CPU      1.64s WALL (       1 calls)
     hinit0       :      0.56s CPU      0.56s WALL (       1 calls)

     Called by electrons:
     c_bands      :    133.65s CPU    135.53s WALL (      14 calls)
     sum_band     :     17.42s CPU     17.61s WALL (      14 calls)
     v_of_rho     :      2.70s CPU      2.86s WALL (      15 calls)
     newd         :      0.03s CPU      0.05s WALL (      15 calls)
     mix_rho      :      0.05s CPU      0.05s WALL (      14 calls)
     vdW_kernel   :      1.50s CPU      1.52s WALL (       1 calls)

     Called by c_bands:
     init_us_2    :      2.47s CPU      2.55s WALL (    3565 calls)
     cegterg      :    128.61s CPU    129.75s WALL (    1610 calls)

     Called by *egterg:
     cdiaghg      :      9.15s CPU      9.18s WALL (    5448 calls)
     h_psi        :    100.92s CPU    102.01s WALL (    5563 calls)
     s_psi        :      4.25s CPU      4.28s WALL (    5563 calls)
     g_psi        :      0.38s CPU      0.38s WALL (    3838 calls)

     Called by h_psi:
     h_psi:calbec :      7.35s CPU      7.42s WALL (    5563 calls)
     vloc_psi     :     88.11s CPU     89.06s WALL (    5563 calls)
     add_vuspsi   :      4.50s CPU      4.54s WALL (    5563 calls)

     General routines
     calbec       :      9.52s CPU      9.61s WALL (    7748 calls)
     fft          :      1.14s CPU      1.16s WALL (     967 calls)
     ffts         :      0.01s CPU      0.01s WALL (      14 calls)
     fftw         :     91.65s CPU     92.60s WALL (  362810 calls)

     Parallel routines

     PWSCF        :   2m53.70s CPU   3m 2.53s WALL


   This run was terminated on:  19: 4:35  26Mar2026            

=------------------------------------------------------------------------------=
   JOB DONE.
=------------------------------------------------------------------------------=
