
     Program PWSCF v.7.3.1 starts on 26Mar2026 at 19: 4:38 

     This program is part of the open-source Quantum ESPRESSO suite
     for quantum simulation of materials; please cite
         "P. Giannozzi et al., J. Phys.:Condens. Matter 21 395502 (2009);
         "P. Giannozzi et al., J. Phys.:Condens. Matter 29 465901 (2017);
         "P. Giannozzi et al., J. Chem. Phys. 152 154105 (2020);
          URL http://www.quantum-espresso.org", 
     in publications or presentations arising from this work. More details at
     http://www.quantum-espresso.org/quote

     Parallel version (MPI), running on   128 processors

     MPI processes distributed on     1 nodes
     235547 MiB available memory on the printing compute node when the environment starts

     Waiting for input...
     Reading input from standard input

     Current dimensions of program PWSCF are:
     Max number of different atomic species (ntypx) = 10
     Max number of k-points (npk) =  40000
     Max angular momentum in pseudopotentials (lmaxx) =  4

     IMPORTANT: XC functional enforced from input :
     Exchange-correlation= VDW-DF2
                           (   1   4  13   0   2   0   0)
     Any further DFT definition will be discarded
     Please, verify this is what you really want

     Found identity + ( -0.5000 -0.5000 -0.0000) symmetry
     This is a supercell, fractional translations are disabled

     K-points division:     npool     =       4
     R & G space division:  proc/nbgrp/npool/nimage =      32
     Subspace diagonalization in iterative solution of the eigenvalue problem:
     a serial algorithm will be used


     Parallelization info
     --------------------
     sticks:   dense  smooth     PW     G-vecs:    dense   smooth      PW
     Min         125     125     34                 7405     7405    1064
     Max         126     126     35                 7408     7408    1069
     Sum        4025    4025   1113               237009   237009   34123

     Using Slab Decomposition



     bravais-lattice index     =            8
     lattice parameter (alat)  =       9.0010  a.u.
     unit-cell volume          =    2056.0217 (a.u.)^3
     number of atoms/cell      =           24
     number of atomic types    =            2
     number of electrons       =        64.00
     number of Kohn-Sham states=           32
     kinetic-energy cutoff     =      90.0000  Ry
     charge density cutoff     =     360.0000  Ry
     scf convergence threshold =      1.0E-07
     mixing beta               =       0.7000
     number of iterations used =            8  plain     mixing
     Exchange-correlation= VDW-DF2
                           (   1   4  13   0   2   0   0)

     celldm(1)=   9.000984  celldm(2)=   1.732119  celldm(3)=   1.627721
     celldm(4)=   0.000000  celldm(5)=   0.000000  celldm(6)=   0.000000

     crystal axes: (cart. coord. in units of alat)
               a(1) = (   1.000000   0.000000   0.000000 )  
               a(2) = (   0.000000   1.732119   0.000000 )  
               a(3) = (   0.000000   0.000000   1.627721 )  

     reciprocal axes: (cart. coord. in units 2 pi/alat)
               b(1) = (  1.000000  0.000000  0.000000 )  
               b(2) = (  0.000000  0.577328  0.000000 )  
               b(3) = (  0.000000  0.000000  0.614356 )  


     PseudoPot. # 1 for H  read from file:
     ./H.pbe-van_ak.UPF
     MD5 check sum: 077eb6d537518a38cb46c6de387227b7
     Pseudo is Ultrasoft, Zval =  1.0
     Generated by new atomic code, or converted to UPF format
     Using radial grid of  615 points,  1 beta functions with: 
                l(1) =   0
     Q(r) pseudized with  8 coefficients,  rinner =    0.800

     PseudoPot. # 2 for O  read from file:
     ./O.pbe-van_ak.UPF
     MD5 check sum: 78c19812648e8988a0fe644b0f25305e
     Pseudo is Ultrasoft, Zval =  6.0
     Generated by new atomic code, or converted to UPF format
     Using radial grid of  737 points,  4 beta functions with: 
                l(1) =   0
                l(2) =   0
                l(3) =   1
                l(4) =   1
     Q(r) pseudized with  8 coefficients,  rinner =    0.800   0.800   0.800


     atomic species   valence    mass     pseudopotential
     H                 1.00     1.00800     H ( 1.00)
     O                 6.00    16.00000     O ( 1.00)

      2 Sym. Ops. (no inversion) found



   Cartesian axes

     site n.     atom                  positions (alat units)
         1        O      tau(   1) = (   0.0000000   1.1505053   0.0983911  )
         2        O      tau(   2) = (   0.0000000   0.5816137   0.9122516  )
         3        O      tau(   3) = (   0.5000000   0.2844458   0.0983911  )
         4        O      tau(   4) = (   0.5000000   1.4476733   0.9122516  )
         5        O      tau(   5) = (   0.5000000   1.4413210   1.5245781  )
         6        O      tau(   6) = (   0.5000000   0.2907980   0.7107175  )
         7        O      tau(   7) = (   0.0000000   0.5752615   1.5245780  )
         8        O      tau(   8) = (   0.0000000   1.1568575   0.7107175  )
         9        H      tau(   9) = (   0.0000000   1.1476935   0.3199225  )
        10        H      tau(  10) = (   0.0000000   0.5844255   1.1337830  )
        11        H      tau(  11) = (   0.5000000   0.2816340   0.3199225  )
        12        H      tau(  12) = (   0.5000000   1.4504851   1.1337830  )
        13        H      tau(  13) = (   0.0000000   0.9389577   0.0320281  )
        14        H      tau(  14) = (   0.0000000   0.7931613   0.8458886  )
        15        H      tau(  15) = (   0.5000000   0.0728982   0.0320281  )
        16        H      tau(  16) = (   0.5000000   1.6592209   0.8458886  )
        17        H      tau(  17) = (   0.6777387   1.3318248   1.5989889  )
        18        H      tau(  18) = (   0.3222613   0.4002942   0.7851284  )
        19        H      tau(  19) = (   0.6777387   0.4002942   0.7851284  )
        20        H      tau(  20) = (   0.3222613   1.3318248   1.5989889  )
        21        H      tau(  21) = (   0.1777387   0.4657653   1.5989889  )
        22        H      tau(  22) = (   0.8222613   1.2663538   0.7851284  )
        23        H      tau(  23) = (   0.1777387   1.2663538   0.7851284  )
        24        H      tau(  24) = (   0.8222613   0.4657653   1.5989889  )

     number of k points=   460

     Number of k-points >= 100: set verbosity='high' to print them.

     Dense  grid:   237009 G-vectors     FFT dimensions: (  60,  96,  90)

     Estimated max dynamical RAM per process >      61.88 MB

     Estimated total dynamical RAM >       7.57 GB

     Initial potential from superposition of free atoms

     starting charge      63.9998, renormalised to      64.0000


     %%%%%%%%%%%%%%%%%%%%%%%%%%%%%%%%%%%%%%%%%%%%%%%%%%%%%%%%%%%%%%%%%%%%%%%%
     %                                                                      %
     % You are using vdW-DF, which was implemented by the Thonhauser group. %
     % Please cite the following two papers that made this development      %
     % possible and the two reviews that describe the various versions:     %
     %                                                                      %
     %   T. Thonhauser et al., PRL 115, 136402 (2015).                      %
     %   T. Thonhauser et al., PRB 76, 125112 (2007).                       %
     %   K. Berland et al., Rep. Prog. Phys. 78, 066501 (2015).             %
     %   D.C. Langreth et al., J. Phys.: Condens. Matter 21, 084203 (2009). %
     %                                                                      %
     % If you are calculating stress with vdW-DF, please also cite:         %
     %                                                                      %
     %   R. Sabatini et al., J. Phys.: Condens. Matter 24, 424209 (2012).   %
     %                                                                      %
     %%%%%%%%%%%%%%%%%%%%%%%%%%%%%%%%%%%%%%%%%%%%%%%%%%%%%%%%%%%%%%%%%%%%%%%%

     %%%%%%%%%%%%%%%%%%%%%%%%%%%%%%%%%%%%%%%%%%%%%%%%%%%%%%%%%%%%%%%%%%%%%%%%
     %                                                                      %
     %  vdW-DF NEWS:                                                        %
     %                                                                      %
     %  * vdW-DF3 is now available. DOI: 10.1021/acs.jctc.0c00471           %
     %    use with input_dft = 'vdW-DF3-opt1' or 'vdW-DF3-opt2'             %
     %                                                                      %
     %  * Unscreened and range-separated hybrid vdW-DF-cx functionals       %
     %    DOI: 10.1063/1.4986522 and 10.1088/1361-648X/ac2ad2               %
     %    use with input_dft = 'vdW-DF-cx0'    and 'vdW-DF-ahcx'            %
     %  * Unscreened and range-separated hybrid vdW-DF2-b86r functionals    %
     %    DOI: 10.1063/1.4986522 and DOI: 10.1103/PhysRevX.12.041003        %
     %    use with input_dft = 'vdW-DF2-br0' and 'vdW-DF2-ahbr'             %
     %                                                                      %
     %%%%%%%%%%%%%%%%%%%%%%%%%%%%%%%%%%%%%%%%%%%%%%%%%%%%%%%%%%%%%%%%%%%%%%%%


     Starting wfcs are   48 randomized atomic wfcs

     total cpu time spent up to now is        7.2 secs

     per-process dynamical memory:    69.8 Mb

     Self-consistent Calculation

     iteration #  1     ecut=    90.00 Ry     beta= 0.70
     Davidson diagonalization with overlap
     ethr =  1.00E-02,  avg # of iterations =  2.0

     total cpu time spent up to now is       17.5 secs

     total energy              =    -277.24242735 Ry
     estimated scf accuracy    <       2.97238955 Ry

     iteration #  2     ecut=    90.00 Ry     beta= 0.70
     Davidson diagonalization with overlap
     ethr =  4.64E-03,  avg # of iterations =  3.0

     total cpu time spent up to now is       31.2 secs

     total energy              =    -278.18761759 Ry
     estimated scf accuracy    <       2.62794646 Ry

     iteration #  3     ecut=    90.00 Ry     beta= 0.70
     Davidson diagonalization with overlap
     ethr =  4.11E-03,  avg # of iterations =  2.0

     total cpu time spent up to now is       41.6 secs

     total energy              =    -278.52127699 Ry
     estimated scf accuracy    <       0.12914690 Ry

     iteration #  4     ecut=    90.00 Ry     beta= 0.70
     Davidson diagonalization with overlap
     ethr =  2.02E-04,  avg # of iterations =  4.0

     total cpu time spent up to now is       57.3 secs

     total energy              =    -278.62059719 Ry
     estimated scf accuracy    <       0.13714356 Ry

     iteration #  5     ecut=    90.00 Ry     beta= 0.70
     Davidson diagonalization with overlap
     ethr =  2.02E-04,  avg # of iterations =  1.8

     total cpu time spent up to now is       65.7 secs

     total energy              =    -278.62084625 Ry
     estimated scf accuracy    <       0.02415421 Ry

     iteration #  6     ecut=    90.00 Ry     beta= 0.70
     Davidson diagonalization with overlap
     ethr =  3.77E-05,  avg # of iterations =  2.0

     total cpu time spent up to now is       76.2 secs

     total energy              =    -278.62562112 Ry
     estimated scf accuracy    <       0.00092377 Ry

     iteration #  7     ecut=    90.00 Ry     beta= 0.70
     Davidson diagonalization with overlap
     ethr =  1.44E-06,  avg # of iterations =  4.1

     total cpu time spent up to now is       89.3 secs

     total energy              =    -278.62639035 Ry
     estimated scf accuracy    <       0.00043986 Ry

     iteration #  8     ecut=    90.00 Ry     beta= 0.70
     Davidson diagonalization with overlap
     ethr =  6.87E-07,  avg # of iterations =  2.0

     total cpu time spent up to now is       98.4 secs

     total energy              =    -278.62624572 Ry
     estimated scf accuracy    <       0.00091542 Ry

     iteration #  9     ecut=    90.00 Ry     beta= 0.70
     Davidson diagonalization with overlap
     ethr =  6.87E-07,  avg # of iterations =  1.0

     total cpu time spent up to now is      106.1 secs

     total energy              =    -278.62607084 Ry
     estimated scf accuracy    <       0.00048640 Ry

     iteration # 10     ecut=    90.00 Ry     beta= 0.70
     Davidson diagonalization with overlap
     ethr =  6.87E-07,  avg # of iterations =  2.0

     total cpu time spent up to now is      116.4 secs

     total energy              =    -278.62611910 Ry
     estimated scf accuracy    <       0.00004170 Ry

     iteration # 11     ecut=    90.00 Ry     beta= 0.70
     Davidson diagonalization with overlap
     ethr =  6.52E-08,  avg # of iterations =  3.0

     total cpu time spent up to now is      129.2 secs

     total energy              =    -278.62613634 Ry
     estimated scf accuracy    <       0.00000099 Ry

     iteration # 12     ecut=    90.00 Ry     beta= 0.70
     Davidson diagonalization with overlap
     ethr =  1.55E-09,  avg # of iterations =  3.0

     total cpu time spent up to now is      141.9 secs

     total energy              =    -278.62613724 Ry
     estimated scf accuracy    <       0.00000145 Ry

     iteration # 13     ecut=    90.00 Ry     beta= 0.70
     Davidson diagonalization with overlap
     ethr =  1.55E-09,  avg # of iterations =  1.0

     total cpu time spent up to now is      149.5 secs

     total energy              =    -278.62613688 Ry
     estimated scf accuracy    <       0.00000102 Ry

     iteration # 14     ecut=    90.00 Ry     beta= 0.70
     Davidson diagonalization with overlap
     ethr =  1.55E-09,  avg # of iterations =  2.0

     total cpu time spent up to now is      159.3 secs

     total energy              =    -278.62613701 Ry
     estimated scf accuracy    <       0.00000011 Ry

     iteration # 15     ecut=    90.00 Ry     beta= 0.70
     Davidson diagonalization with overlap
     ethr =  1.67E-10,  avg # of iterations =  2.0

     total cpu time spent up to now is      168.2 secs

     total energy              =    -278.62613702 Ry
     estimated scf accuracy    <       0.00000011 Ry

     iteration # 16     ecut=    90.00 Ry     beta= 0.70
     Davidson diagonalization with overlap
     ethr =  1.67E-10,  avg # of iterations =  1.0

     total cpu time spent up to now is      175.9 secs

     total energy              =    -278.62613699 Ry
     estimated scf accuracy    <       0.00000012 Ry

     iteration # 17     ecut=    90.00 Ry     beta= 0.70
     Davidson diagonalization with overlap
     ethr =  1.67E-10,  avg # of iterations =  1.1

     total cpu time spent up to now is      183.7 secs

     End of self-consistent calculation

     Number of k-points >= 100: set verbosity='high' to print the bands.

     highest occupied level (ev):    -4.4800

!    total energy              =    -278.62613697 Ry
     estimated scf accuracy    <       0.00000003 Ry

     The total energy is the sum of the following terms:
     one-electron contribution =    -249.62755383 Ry
     hartree contribution      =     144.35220276 Ry
     xc contribution           =     -69.63356707 Ry
     ewald contribution        =    -103.71721883 Ry

     convergence has been achieved in  17 iterations

     Forces acting on atoms (cartesian axes, Ry/au):

     atom    1 type  2   force =     0.00000000   -0.06199111    0.04521057
     atom    2 type  2   force =     0.00000000    0.06199128    0.04521084
     atom    3 type  2   force =     0.00000000   -0.06199079    0.04521032
     atom    4 type  2   force =     0.00000000    0.06199097    0.04521029
     atom    5 type  2   force =     0.00000000   -0.06328129    0.04269261
     atom    6 type  2   force =     0.00000000    0.06328100    0.04269274
     atom    7 type  2   force =     0.00000000   -0.06328132    0.04269278
     atom    8 type  2   force =     0.00000000    0.06328140    0.04269270
     atom    9 type  1   force =     0.00000000   -0.00299148   -0.07137436
     atom   10 type  1   force =     0.00000000    0.00299153   -0.07137431
     atom   11 type  1   force =     0.00000000   -0.00299143   -0.07137441
     atom   12 type  1   force =     0.00000000    0.00299152   -0.07137443
     atom   13 type  1   force =     0.00000000    0.06612039    0.02604754
     atom   14 type  1   force =     0.00000000   -0.06612022    0.02604754
     atom   15 type  1   force =     0.00000000    0.06612044    0.02604751
     atom   16 type  1   force =     0.00000000   -0.06612038    0.02604751
     atom   17 type  1   force =    -0.06029055    0.03147090   -0.02128809
     atom   18 type  1   force =     0.06029084   -0.03147116   -0.02128827
     atom   19 type  1   force =    -0.06029084   -0.03147116   -0.02128827
     atom   20 type  1   force =     0.06029055    0.03147090   -0.02128809
     atom   21 type  1   force =    -0.06029073    0.03147102   -0.02128818
     atom   22 type  1   force =     0.06029073   -0.03147100   -0.02128818
     atom   23 type  1   force =    -0.06029073   -0.03147100   -0.02128818
     atom   24 type  1   force =     0.06029073    0.03147102   -0.02128818

     Total force =     0.357910     Total SCF correction =     0.000111


     Computing stress (Cartesian axis) and pressure

          total   stress  (Ry/bohr**3)                   (kbar)     P=      -76.50
  -0.00052644   0.00000000   0.00000000          -77.44        0.00        0.00
   0.00000000  -0.00051923   0.00000000            0.00      -76.38        0.00
   0.00000000   0.00000000  -0.00051438            0.00        0.00      -75.67


     Writing all to output data dir ./iceIh/iceIh.save/ :
     XML data file, charge density, pseudopotentials, collected wavefunctions

     init_run     :      6.90s CPU      7.02s WALL (       1 calls)
     electrons    :    174.00s CPU    176.52s WALL (       1 calls)
     forces       :      0.74s CPU      0.74s WALL (       1 calls)
     stress       :     10.74s CPU     10.76s WALL (       1 calls)

     Called by init_run:
     wfcinit      :      4.63s CPU      4.71s WALL (       1 calls)
     potinit      :      1.60s CPU      1.63s WALL (       1 calls)
     hinit0       :      0.56s CPU      0.56s WALL (       1 calls)

     Called by electrons:
     c_bands      :    151.17s CPU    153.31s WALL (      17 calls)
     sum_band     :     21.38s CPU     21.52s WALL (      17 calls)
     v_of_rho     :      2.91s CPU      3.09s WALL (      18 calls)
     newd         :      0.04s CPU      0.05s WALL (      18 calls)
     mix_rho      :      0.06s CPU      0.06s WALL (      17 calls)
     vdW_kernel   :      1.51s CPU      1.51s WALL (       1 calls)

     Called by c_bands:
     init_us_2    :      3.01s CPU      3.10s WALL (    4255 calls)
     cegterg      :    144.74s CPU    145.97s WALL (    1955 calls)

     Called by *egterg:
     cdiaghg      :     10.10s CPU     10.14s WALL (    6148 calls)
     h_psi        :    113.93s CPU    115.07s WALL (    6263 calls)
     s_psi        :      4.85s CPU      4.88s WALL (    6263 calls)
     g_psi        :      0.42s CPU      0.42s WALL (    4193 calls)

     Called by h_psi:
     h_psi:calbec :      8.30s CPU      8.38s WALL (    6263 calls)
     vloc_psi     :     99.39s CPU    100.38s WALL (    6263 calls)
     add_vuspsi   :      5.11s CPU      5.15s WALL (    6263 calls)

     General routines
     calbec       :     10.91s CPU     11.01s WALL (    8793 calls)
     fft          :      1.23s CPU      1.26s WALL (    1150 calls)
     ffts         :      0.01s CPU      0.01s WALL (      17 calls)
     fftw         :    104.74s CPU    105.70s WALL (  412472 calls)

     Parallel routines

     PWSCF        :   3m15.67s CPU   3m23.18s WALL


   This run was terminated on:  19: 8: 1  26Mar2026            

=------------------------------------------------------------------------------=
   JOB DONE.
=------------------------------------------------------------------------------=
