
     Program PWSCF v.7.3.1 starts on 26Mar2026 at 19: 8: 4 

     This program is part of the open-source Quantum ESPRESSO suite
     for quantum simulation of materials; please cite
         "P. Giannozzi et al., J. Phys.:Condens. Matter 21 395502 (2009);
         "P. Giannozzi et al., J. Phys.:Condens. Matter 29 465901 (2017);
         "P. Giannozzi et al., J. Chem. Phys. 152 154105 (2020);
          URL http://www.quantum-espresso.org", 
     in publications or presentations arising from this work. More details at
     http://www.quantum-espresso.org/quote

     Parallel version (MPI), running on   128 processors

     MPI processes distributed on     1 nodes
     235492 MiB available memory on the printing compute node when the environment starts

     Waiting for input...
     Reading input from standard input

     Current dimensions of program PWSCF are:
     Max number of different atomic species (ntypx) = 10
     Max number of k-points (npk) =  40000
     Max angular momentum in pseudopotentials (lmaxx) =  4

     IMPORTANT: XC functional enforced from input :
     Exchange-correlation= VDW-DF2
                           (   1   4  13   0   2   0   0)
     Any further DFT definition will be discarded
     Please, verify this is what you really want

     Found identity + ( -0.5000 -0.5000 -0.0000) symmetry
     This is a supercell, fractional translations are disabled

     K-points division:     npool     =       4
     R & G space division:  proc/nbgrp/npool/nimage =      32
     Subspace diagonalization in iterative solution of the eigenvalue problem:
     a serial algorithm will be used


     Parallelization info
     --------------------
     sticks:   dense  smooth     PW     G-vecs:    dense   smooth      PW
     Min         126     126     34                 7454     7454    1070
     Max         127     127     35                 7457     7457    1075
     Sum        4053    4053   1113               238553   238553   34315

     Using Slab Decomposition



     bravais-lattice index     =            8
     lattice parameter (alat)  =       9.0180  a.u.
     unit-cell volume          =    2067.7036 (a.u.)^3
     number of atoms/cell      =           24
     number of atomic types    =            2
     number of electrons       =        64.00
     number of Kohn-Sham states=           32
     kinetic-energy cutoff     =      90.0000  Ry
     charge density cutoff     =     360.0000  Ry
     scf convergence threshold =      1.0E-07
     mixing beta               =       0.7000
     number of iterations used =            8  plain     mixing
     Exchange-correlation= VDW-DF2
                           (   1   4  13   0   2   0   0)

     celldm(1)=   9.017999  celldm(2)=   1.732119  celldm(3)=   1.627721
     celldm(4)=   0.000000  celldm(5)=   0.000000  celldm(6)=   0.000000

     crystal axes: (cart. coord. in units of alat)
               a(1) = (   1.000000   0.000000   0.000000 )  
               a(2) = (   0.000000   1.732119   0.000000 )  
               a(3) = (   0.000000   0.000000   1.627721 )  

     reciprocal axes: (cart. coord. in units 2 pi/alat)
               b(1) = (  1.000000  0.000000  0.000000 )  
               b(2) = (  0.000000  0.577328  0.000000 )  
               b(3) = (  0.000000  0.000000  0.614356 )  


     PseudoPot. # 1 for H  read from file:
     ./H.pbe-van_ak.UPF
     MD5 check sum: 077eb6d537518a38cb46c6de387227b7
     Pseudo is Ultrasoft, Zval =  1.0
     Generated by new atomic code, or converted to UPF format
     Using radial grid of  615 points,  1 beta functions with: 
                l(1) =   0
     Q(r) pseudized with  8 coefficients,  rinner =    0.800

     PseudoPot. # 2 for O  read from file:
     ./O.pbe-van_ak.UPF
     MD5 check sum: 78c19812648e8988a0fe644b0f25305e
     Pseudo is Ultrasoft, Zval =  6.0
     Generated by new atomic code, or converted to UPF format
     Using radial grid of  737 points,  4 beta functions with: 
                l(1) =   0
                l(2) =   0
                l(3) =   1
                l(4) =   1
     Q(r) pseudized with  8 coefficients,  rinner =    0.800   0.800   0.800


     atomic species   valence    mass     pseudopotential
     H                 1.00     1.00800     H ( 1.00)
     O                 6.00    16.00000     O ( 1.00)

      2 Sym. Ops. (no inversion) found



   Cartesian axes

     site n.     atom                  positions (alat units)
         1        O      tau(   1) = (   0.0000000   1.1505053   0.0983911  )
         2        O      tau(   2) = (   0.0000000   0.5816137   0.9122516  )
         3        O      tau(   3) = (   0.5000000   0.2844458   0.0983911  )
         4        O      tau(   4) = (   0.5000000   1.4476733   0.9122516  )
         5        O      tau(   5) = (   0.5000000   1.4413210   1.5245781  )
         6        O      tau(   6) = (   0.5000000   0.2907980   0.7107175  )
         7        O      tau(   7) = (   0.0000000   0.5752615   1.5245780  )
         8        O      tau(   8) = (   0.0000000   1.1568575   0.7107175  )
         9        H      tau(   9) = (   0.0000000   1.1476935   0.3199225  )
        10        H      tau(  10) = (   0.0000000   0.5844255   1.1337830  )
        11        H      tau(  11) = (   0.5000000   0.2816340   0.3199225  )
        12        H      tau(  12) = (   0.5000000   1.4504851   1.1337830  )
        13        H      tau(  13) = (   0.0000000   0.9389577   0.0320281  )
        14        H      tau(  14) = (   0.0000000   0.7931613   0.8458886  )
        15        H      tau(  15) = (   0.5000000   0.0728982   0.0320281  )
        16        H      tau(  16) = (   0.5000000   1.6592209   0.8458886  )
        17        H      tau(  17) = (   0.6777387   1.3318248   1.5989889  )
        18        H      tau(  18) = (   0.3222613   0.4002942   0.7851284  )
        19        H      tau(  19) = (   0.6777387   0.4002942   0.7851284  )
        20        H      tau(  20) = (   0.3222613   1.3318248   1.5989889  )
        21        H      tau(  21) = (   0.1777387   0.4657653   1.5989889  )
        22        H      tau(  22) = (   0.8222613   1.2663538   0.7851284  )
        23        H      tau(  23) = (   0.1777387   1.2663538   0.7851284  )
        24        H      tau(  24) = (   0.8222613   0.4657653   1.5989889  )

     number of k points=   460

     Number of k-points >= 100: set verbosity='high' to print them.

     Dense  grid:   238553 G-vectors     FFT dimensions: (  60,  96,  90)

     Estimated max dynamical RAM per process >      62.21 MB

     Estimated total dynamical RAM >       7.61 GB

     Initial potential from superposition of free atoms

     starting charge      63.9998, renormalised to      64.0000


     %%%%%%%%%%%%%%%%%%%%%%%%%%%%%%%%%%%%%%%%%%%%%%%%%%%%%%%%%%%%%%%%%%%%%%%%
     %                                                                      %
     % You are using vdW-DF, which was implemented by the Thonhauser group. %
     % Please cite the following two papers that made this development      %
     % possible and the two reviews that describe the various versions:     %
     %                                                                      %
     %   T. Thonhauser et al., PRL 115, 136402 (2015).                      %
     %   T. Thonhauser et al., PRB 76, 125112 (2007).                       %
     %   K. Berland et al., Rep. Prog. Phys. 78, 066501 (2015).             %
     %   D.C. Langreth et al., J. Phys.: Condens. Matter 21, 084203 (2009). %
     %                                                                      %
     % If you are calculating stress with vdW-DF, please also cite:         %
     %                                                                      %
     %   R. Sabatini et al., J. Phys.: Condens. Matter 24, 424209 (2012).   %
     %                                                                      %
     %%%%%%%%%%%%%%%%%%%%%%%%%%%%%%%%%%%%%%%%%%%%%%%%%%%%%%%%%%%%%%%%%%%%%%%%

     %%%%%%%%%%%%%%%%%%%%%%%%%%%%%%%%%%%%%%%%%%%%%%%%%%%%%%%%%%%%%%%%%%%%%%%%
     %                                                                      %
     %  vdW-DF NEWS:                                                        %
     %                                                                      %
     %  * vdW-DF3 is now available. DOI: 10.1021/acs.jctc.0c00471           %
     %    use with input_dft = 'vdW-DF3-opt1' or 'vdW-DF3-opt2'             %
     %                                                                      %
     %  * Unscreened and range-separated hybrid vdW-DF-cx functionals       %
     %    DOI: 10.1063/1.4986522 and 10.1088/1361-648X/ac2ad2               %
     %    use with input_dft = 'vdW-DF-cx0'    and 'vdW-DF-ahcx'            %
     %  * Unscreened and range-separated hybrid vdW-DF2-b86r functionals    %
     %    DOI: 10.1063/1.4986522 and DOI: 10.1103/PhysRevX.12.041003        %
     %    use with input_dft = 'vdW-DF2-br0' and 'vdW-DF2-ahbr'             %
     %                                                                      %
     %%%%%%%%%%%%%%%%%%%%%%%%%%%%%%%%%%%%%%%%%%%%%%%%%%%%%%%%%%%%%%%%%%%%%%%%


     Starting wfcs are   48 randomized atomic wfcs

     total cpu time spent up to now is        7.3 secs

     per-process dynamical memory:    70.2 Mb

     Self-consistent Calculation

     iteration #  1     ecut=    90.00 Ry     beta= 0.70
     Davidson diagonalization with overlap
     ethr =  1.00E-02,  avg # of iterations =  2.0

     total cpu time spent up to now is       17.5 secs

     total energy              =    -277.23679418 Ry
     estimated scf accuracy    <       2.96749389 Ry

     iteration #  2     ecut=    90.00 Ry     beta= 0.70
     Davidson diagonalization with overlap
     ethr =  4.64E-03,  avg # of iterations =  3.0

     total cpu time spent up to now is       31.3 secs

     total energy              =    -278.17975463 Ry
     estimated scf accuracy    <       2.64205568 Ry

     iteration #  3     ecut=    90.00 Ry     beta= 0.70
     Davidson diagonalization with overlap
     ethr =  4.13E-03,  avg # of iterations =  2.0

     total cpu time spent up to now is       41.7 secs

     total energy              =    -278.51433281 Ry
     estimated scf accuracy    <       0.13063623 Ry

     iteration #  4     ecut=    90.00 Ry     beta= 0.70
     Davidson diagonalization with overlap
     ethr =  2.04E-04,  avg # of iterations =  4.0

     total cpu time spent up to now is       57.4 secs

     total energy              =    -278.61467388 Ry
     estimated scf accuracy    <       0.13756097 Ry

     iteration #  5     ecut=    90.00 Ry     beta= 0.70
     Davidson diagonalization with overlap
     ethr =  2.04E-04,  avg # of iterations =  1.7

     total cpu time spent up to now is       65.8 secs

     total energy              =    -278.61486082 Ry
     estimated scf accuracy    <       0.02435210 Ry

     iteration #  6     ecut=    90.00 Ry     beta= 0.70
     Davidson diagonalization with overlap
     ethr =  3.81E-05,  avg # of iterations =  2.0

     total cpu time spent up to now is       76.3 secs

     total energy              =    -278.61967856 Ry
     estimated scf accuracy    <       0.00090922 Ry

     iteration #  7     ecut=    90.00 Ry     beta= 0.70
     Davidson diagonalization with overlap
     ethr =  1.42E-06,  avg # of iterations =  4.2

     total cpu time spent up to now is       89.5 secs

     total energy              =    -278.62042715 Ry
     estimated scf accuracy    <       0.00043081 Ry

     iteration #  8     ecut=    90.00 Ry     beta= 0.70
     Davidson diagonalization with overlap
     ethr =  6.73E-07,  avg # of iterations =  2.0

     total cpu time spent up to now is       98.6 secs

     total energy              =    -278.62028524 Ry
     estimated scf accuracy    <       0.00087883 Ry

     iteration #  9     ecut=    90.00 Ry     beta= 0.70
     Davidson diagonalization with overlap
     ethr =  6.73E-07,  avg # of iterations =  1.0

     total cpu time spent up to now is      106.2 secs

     total energy              =    -278.62011558 Ry
     estimated scf accuracy    <       0.00046132 Ry

     iteration # 10     ecut=    90.00 Ry     beta= 0.70
     Davidson diagonalization with overlap
     ethr =  6.73E-07,  avg # of iterations =  2.0

     total cpu time spent up to now is      116.6 secs

     total energy              =    -278.62016783 Ry
     estimated scf accuracy    <       0.00003400 Ry

     iteration # 11     ecut=    90.00 Ry     beta= 0.70
     Davidson diagonalization with overlap
     ethr =  5.31E-08,  avg # of iterations =  3.0

     total cpu time spent up to now is      129.6 secs

     total energy              =    -278.62018294 Ry
     estimated scf accuracy    <       0.00000106 Ry

     iteration # 12     ecut=    90.00 Ry     beta= 0.70
     Davidson diagonalization with overlap
     ethr =  1.66E-09,  avg # of iterations =  3.0

     total cpu time spent up to now is      141.6 secs

     total energy              =    -278.62018380 Ry
     estimated scf accuracy    <       0.00000087 Ry

     iteration # 13     ecut=    90.00 Ry     beta= 0.70
     Davidson diagonalization with overlap
     ethr =  1.36E-09,  avg # of iterations =  1.0

     total cpu time spent up to now is      149.3 secs

     total energy              =    -278.62018353 Ry
     estimated scf accuracy    <       0.00000081 Ry

     iteration # 14     ecut=    90.00 Ry     beta= 0.70
     Davidson diagonalization with overlap
     ethr =  1.26E-09,  avg # of iterations =  2.0

     total cpu time spent up to now is      158.0 secs

     total energy              =    -278.62018362 Ry
     estimated scf accuracy    <       0.00000014 Ry

     iteration # 15     ecut=    90.00 Ry     beta= 0.70
     Davidson diagonalization with overlap
     ethr =  2.12E-10,  avg # of iterations =  2.0

     total cpu time spent up to now is      167.1 secs

     total energy              =    -278.62018362 Ry
     estimated scf accuracy    <       0.00000015 Ry

     iteration # 16     ecut=    90.00 Ry     beta= 0.70
     Davidson diagonalization with overlap
     ethr =  2.12E-10,  avg # of iterations =  1.0

     total cpu time spent up to now is      174.7 secs

     total energy              =    -278.62018358 Ry
     estimated scf accuracy    <       0.00000012 Ry

     iteration # 17     ecut=    90.00 Ry     beta= 0.70
     Davidson diagonalization with overlap
     ethr =  1.86E-10,  avg # of iterations =  2.0

     total cpu time spent up to now is      185.1 secs

     End of self-consistent calculation

     Number of k-points >= 100: set verbosity='high' to print the bands.

     highest occupied level (ev):    -4.4977

!    total energy              =    -278.62018359 Ry
     estimated scf accuracy    <          6.0E-09 Ry

     The total energy is the sum of the following terms:
     one-electron contribution =    -249.99048357 Ry
     hartree contribution      =     144.49521931 Ry
     xc contribution           =     -69.60339337 Ry
     ewald contribution        =    -103.52152597 Ry

     convergence has been achieved in  17 iterations

     Forces acting on atoms (cartesian axes, Ry/au):

     atom    1 type  2   force =     0.00000000   -0.06350069    0.04634454
     atom    2 type  2   force =     0.00000000    0.06350071    0.04634464
     atom    3 type  2   force =     0.00000000   -0.06350067    0.04634454
     atom    4 type  2   force =     0.00000000    0.06350063    0.04634450
     atom    5 type  2   force =     0.00000000   -0.06490331    0.04401563
     atom    6 type  2   force =     0.00000000    0.06490305    0.04401545
     atom    7 type  2   force =     0.00000000   -0.06490320    0.04401554
     atom    8 type  2   force =     0.00000000    0.06490348    0.04401572
     atom    9 type  1   force =     0.00000000   -0.00309685   -0.07336113
     atom   10 type  1   force =     0.00000000    0.00309687   -0.07336118
     atom   11 type  1   force =     0.00000000   -0.00309686   -0.07336116
     atom   12 type  1   force =     0.00000000    0.00309685   -0.07336117
     atom   13 type  1   force =     0.00000000    0.06796463    0.02679087
     atom   14 type  1   force =     0.00000000   -0.06796456    0.02679087
     atom   15 type  1   force =     0.00000000    0.06796461    0.02679087
     atom   16 type  1   force =     0.00000000   -0.06796463    0.02679086
     atom   17 type  1   force =    -0.06198145    0.03235853   -0.02189491
     atom   18 type  1   force =     0.06198150   -0.03235859   -0.02189495
     atom   19 type  1   force =    -0.06198150   -0.03235859   -0.02189495
     atom   20 type  1   force =     0.06198145    0.03235853   -0.02189491
     atom   21 type  1   force =    -0.06198147    0.03235855   -0.02189493
     atom   22 type  1   force =     0.06198144   -0.03235851   -0.02189490
     atom   23 type  1   force =    -0.06198144   -0.03235851   -0.02189490
     atom   24 type  1   force =     0.06198147    0.03235855   -0.02189493

     Total force =     0.367667     Total SCF correction =     0.000036


     Computing stress (Cartesian axis) and pressure

          total   stress  (Ry/bohr**3)                   (kbar)     P=      -78.23
  -0.00053827   0.00000000   0.00000000          -79.18        0.00        0.00
   0.00000000  -0.00053112   0.00000000            0.00      -78.13        0.00
   0.00000000   0.00000000  -0.00052598            0.00        0.00      -77.37


     Writing all to output data dir ./iceIh/iceIh.save/ :
     XML data file, charge density, pseudopotentials, collected wavefunctions

     init_run     :      6.94s CPU      7.05s WALL (       1 calls)
     electrons    :    175.40s CPU    177.90s WALL (       1 calls)
     forces       :      0.73s CPU      0.74s WALL (       1 calls)
     stress       :     10.83s CPU     10.87s WALL (       1 calls)

     Called by init_run:
     wfcinit      :      4.63s CPU      4.69s WALL (       1 calls)
     potinit      :      1.64s CPU      1.67s WALL (       1 calls)
     hinit0       :      0.56s CPU      0.57s WALL (       1 calls)

     Called by electrons:
     c_bands      :    152.52s CPU    154.59s WALL (      17 calls)
     sum_band     :     21.38s CPU     21.55s WALL (      17 calls)
     v_of_rho     :      2.94s CPU      3.11s WALL (      18 calls)
     newd         :      0.05s CPU      0.06s WALL (      18 calls)
     mix_rho      :      0.06s CPU      0.06s WALL (      17 calls)
     vdW_kernel   :      1.51s CPU      1.52s WALL (       1 calls)

     Called by c_bands:
     init_us_2    :      3.01s CPU      3.12s WALL (    4255 calls)
     cegterg      :    146.22s CPU    147.37s WALL (    1955 calls)

     Called by *egterg:
     cdiaghg      :     10.22s CPU     10.26s WALL (    6250 calls)
     h_psi        :    114.60s CPU    115.69s WALL (    6365 calls)
     s_psi        :      4.81s CPU      4.83s WALL (    6365 calls)
     g_psi        :      0.42s CPU      0.42s WALL (    4295 calls)

     Called by h_psi:
     h_psi:calbec :      8.52s CPU      8.58s WALL (    6365 calls)
     vloc_psi     :     99.74s CPU    100.70s WALL (    6365 calls)
     add_vuspsi   :      5.21s CPU      5.24s WALL (    6365 calls)

     General routines
     calbec       :     11.15s CPU     11.24s WALL (    8895 calls)
     fft          :      1.26s CPU      1.28s WALL (    1150 calls)
     ffts         :      0.01s CPU      0.01s WALL (      17 calls)
     fftw         :    104.76s CPU    105.70s WALL (  414180 calls)

     Parallel routines

     PWSCF        :   3m17.69s CPU   3m26.09s WALL


   This run was terminated on:  19:11:30  26Mar2026            

=------------------------------------------------------------------------------=
   JOB DONE.
=------------------------------------------------------------------------------=
