
     Program PWSCF v.7.3.1 starts on 26Mar2026 at 19:11:32 

     This program is part of the open-source Quantum ESPRESSO suite
     for quantum simulation of materials; please cite
         "P. Giannozzi et al., J. Phys.:Condens. Matter 21 395502 (2009);
         "P. Giannozzi et al., J. Phys.:Condens. Matter 29 465901 (2017);
         "P. Giannozzi et al., J. Chem. Phys. 152 154105 (2020);
          URL http://www.quantum-espresso.org", 
     in publications or presentations arising from this work. More details at
     http://www.quantum-espresso.org/quote

     Parallel version (MPI), running on   128 processors

     MPI processes distributed on     1 nodes
     235422 MiB available memory on the printing compute node when the environment starts

     Waiting for input...
     Reading input from standard input

     Current dimensions of program PWSCF are:
     Max number of different atomic species (ntypx) = 10
     Max number of k-points (npk) =  40000
     Max angular momentum in pseudopotentials (lmaxx) =  4

     IMPORTANT: XC functional enforced from input :
     Exchange-correlation= VDW-DF2
                           (   1   4  13   0   2   0   0)
     Any further DFT definition will be discarded
     Please, verify this is what you really want

     Found identity + ( -0.5000 -0.5000 -0.0000) symmetry
     This is a supercell, fractional translations are disabled

     K-points division:     npool     =       4
     R & G space division:  proc/nbgrp/npool/nimage =      32
     Subspace diagonalization in iterative solution of the eigenvalue problem:
     a serial algorithm will be used


     Parallelization info
     --------------------
     sticks:   dense  smooth     PW     G-vecs:    dense   smooth      PW
     Min         126     126     34                 7492     7492    1076
     Max         127     127     35                 7499     7499    1081
     Sum        4053    4053   1113               239869   239869   34523

     Using Slab Decomposition



     bravais-lattice index     =            8
     lattice parameter (alat)  =       9.0350  a.u.
     unit-cell volume          =    2079.4297 (a.u.)^3
     number of atoms/cell      =           24
     number of atomic types    =            2
     number of electrons       =        64.00
     number of Kohn-Sham states=           32
     kinetic-energy cutoff     =      90.0000  Ry
     charge density cutoff     =     360.0000  Ry
     scf convergence threshold =      1.0E-07
     mixing beta               =       0.7000
     number of iterations used =            8  plain     mixing
     Exchange-correlation= VDW-DF2
                           (   1   4  13   0   2   0   0)

     celldm(1)=   9.035014  celldm(2)=   1.732119  celldm(3)=   1.627721
     celldm(4)=   0.000000  celldm(5)=   0.000000  celldm(6)=   0.000000

     crystal axes: (cart. coord. in units of alat)
               a(1) = (   1.000000   0.000000   0.000000 )  
               a(2) = (   0.000000   1.732119   0.000000 )  
               a(3) = (   0.000000   0.000000   1.627721 )  

     reciprocal axes: (cart. coord. in units 2 pi/alat)
               b(1) = (  1.000000  0.000000  0.000000 )  
               b(2) = (  0.000000  0.577328  0.000000 )  
               b(3) = (  0.000000  0.000000  0.614356 )  


     PseudoPot. # 1 for H  read from file:
     ./H.pbe-van_ak.UPF
     MD5 check sum: 077eb6d537518a38cb46c6de387227b7
     Pseudo is Ultrasoft, Zval =  1.0
     Generated by new atomic code, or converted to UPF format
     Using radial grid of  615 points,  1 beta functions with: 
                l(1) =   0
     Q(r) pseudized with  8 coefficients,  rinner =    0.800

     PseudoPot. # 2 for O  read from file:
     ./O.pbe-van_ak.UPF
     MD5 check sum: 78c19812648e8988a0fe644b0f25305e
     Pseudo is Ultrasoft, Zval =  6.0
     Generated by new atomic code, or converted to UPF format
     Using radial grid of  737 points,  4 beta functions with: 
                l(1) =   0
                l(2) =   0
                l(3) =   1
                l(4) =   1
     Q(r) pseudized with  8 coefficients,  rinner =    0.800   0.800   0.800


     atomic species   valence    mass     pseudopotential
     H                 1.00     1.00800     H ( 1.00)
     O                 6.00    16.00000     O ( 1.00)

      2 Sym. Ops. (no inversion) found



   Cartesian axes

     site n.     atom                  positions (alat units)
         1        O      tau(   1) = (   0.0000000   1.1505053   0.0983911  )
         2        O      tau(   2) = (   0.0000000   0.5816137   0.9122516  )
         3        O      tau(   3) = (   0.5000000   0.2844458   0.0983911  )
         4        O      tau(   4) = (   0.5000000   1.4476733   0.9122516  )
         5        O      tau(   5) = (   0.5000000   1.4413210   1.5245781  )
         6        O      tau(   6) = (   0.5000000   0.2907980   0.7107175  )
         7        O      tau(   7) = (   0.0000000   0.5752615   1.5245780  )
         8        O      tau(   8) = (   0.0000000   1.1568575   0.7107175  )
         9        H      tau(   9) = (   0.0000000   1.1476935   0.3199225  )
        10        H      tau(  10) = (   0.0000000   0.5844255   1.1337830  )
        11        H      tau(  11) = (   0.5000000   0.2816340   0.3199225  )
        12        H      tau(  12) = (   0.5000000   1.4504851   1.1337830  )
        13        H      tau(  13) = (   0.0000000   0.9389577   0.0320281  )
        14        H      tau(  14) = (   0.0000000   0.7931613   0.8458886  )
        15        H      tau(  15) = (   0.5000000   0.0728982   0.0320281  )
        16        H      tau(  16) = (   0.5000000   1.6592209   0.8458886  )
        17        H      tau(  17) = (   0.6777387   1.3318248   1.5989889  )
        18        H      tau(  18) = (   0.3222613   0.4002942   0.7851284  )
        19        H      tau(  19) = (   0.6777387   0.4002942   0.7851284  )
        20        H      tau(  20) = (   0.3222613   1.3318248   1.5989889  )
        21        H      tau(  21) = (   0.1777387   0.4657653   1.5989889  )
        22        H      tau(  22) = (   0.8222613   1.2663538   0.7851284  )
        23        H      tau(  23) = (   0.1777387   1.2663538   0.7851284  )
        24        H      tau(  24) = (   0.8222613   0.4657653   1.5989889  )

     number of k points=   460

     Number of k-points >= 100: set verbosity='high' to print them.

     Dense  grid:   239869 G-vectors     FFT dimensions: (  60,  96,  90)

     Estimated max dynamical RAM per process >      62.53 MB

     Estimated total dynamical RAM >       7.64 GB

     Initial potential from superposition of free atoms

     starting charge      63.9998, renormalised to      64.0000


     %%%%%%%%%%%%%%%%%%%%%%%%%%%%%%%%%%%%%%%%%%%%%%%%%%%%%%%%%%%%%%%%%%%%%%%%
     %                                                                      %
     % You are using vdW-DF, which was implemented by the Thonhauser group. %
     % Please cite the following two papers that made this development      %
     % possible and the two reviews that describe the various versions:     %
     %                                                                      %
     %   T. Thonhauser et al., PRL 115, 136402 (2015).                      %
     %   T. Thonhauser et al., PRB 76, 125112 (2007).                       %
     %   K. Berland et al., Rep. Prog. Phys. 78, 066501 (2015).             %
     %   D.C. Langreth et al., J. Phys.: Condens. Matter 21, 084203 (2009). %
     %                                                                      %
     % If you are calculating stress with vdW-DF, please also cite:         %
     %                                                                      %
     %   R. Sabatini et al., J. Phys.: Condens. Matter 24, 424209 (2012).   %
     %                                                                      %
     %%%%%%%%%%%%%%%%%%%%%%%%%%%%%%%%%%%%%%%%%%%%%%%%%%%%%%%%%%%%%%%%%%%%%%%%

     %%%%%%%%%%%%%%%%%%%%%%%%%%%%%%%%%%%%%%%%%%%%%%%%%%%%%%%%%%%%%%%%%%%%%%%%
     %                                                                      %
     %  vdW-DF NEWS:                                                        %
     %                                                                      %
     %  * vdW-DF3 is now available. DOI: 10.1021/acs.jctc.0c00471           %
     %    use with input_dft = 'vdW-DF3-opt1' or 'vdW-DF3-opt2'             %
     %                                                                      %
     %  * Unscreened and range-separated hybrid vdW-DF-cx functionals       %
     %    DOI: 10.1063/1.4986522 and 10.1088/1361-648X/ac2ad2               %
     %    use with input_dft = 'vdW-DF-cx0'    and 'vdW-DF-ahcx'            %
     %  * Unscreened and range-separated hybrid vdW-DF2-b86r functionals    %
     %    DOI: 10.1063/1.4986522 and DOI: 10.1103/PhysRevX.12.041003        %
     %    use with input_dft = 'vdW-DF2-br0' and 'vdW-DF2-ahbr'             %
     %                                                                      %
     %%%%%%%%%%%%%%%%%%%%%%%%%%%%%%%%%%%%%%%%%%%%%%%%%%%%%%%%%%%%%%%%%%%%%%%%


     Starting wfcs are   48 randomized atomic wfcs

     total cpu time spent up to now is        7.4 secs

     per-process dynamical memory:    69.6 Mb

     Self-consistent Calculation

     iteration #  1     ecut=    90.00 Ry     beta= 0.70
     Davidson diagonalization with overlap
     ethr =  1.00E-02,  avg # of iterations =  2.0

     total cpu time spent up to now is       17.6 secs

     total energy              =    -277.23122087 Ry
     estimated scf accuracy    <       2.96253330 Ry

     iteration #  2     ecut=    90.00 Ry     beta= 0.70
     Davidson diagonalization with overlap
     ethr =  4.63E-03,  avg # of iterations =  3.0

     total cpu time spent up to now is       31.6 secs

     total energy              =    -278.17181308 Ry
     estimated scf accuracy    <       2.65576592 Ry

     iteration #  3     ecut=    90.00 Ry     beta= 0.70
     Davidson diagonalization with overlap
     ethr =  4.15E-03,  avg # of iterations =  2.0

     total cpu time spent up to now is       42.0 secs

     total energy              =    -278.50727382 Ry
     estimated scf accuracy    <       0.13210196 Ry

     iteration #  4     ecut=    90.00 Ry     beta= 0.70
     Davidson diagonalization with overlap
     ethr =  2.06E-04,  avg # of iterations =  4.0

     total cpu time spent up to now is       57.7 secs

     total energy              =    -278.60862321 Ry
     estimated scf accuracy    <       0.13794500 Ry

     iteration #  5     ecut=    90.00 Ry     beta= 0.70
     Davidson diagonalization with overlap
     ethr =  2.06E-04,  avg # of iterations =  1.6

     negative rho (up, down):  3.939E-08 0.000E+00

     total cpu time spent up to now is       66.1 secs

     total energy              =    -278.60874616 Ry
     estimated scf accuracy    <       0.02456715 Ry

     iteration #  6     ecut=    90.00 Ry     beta= 0.70
     Davidson diagonalization with overlap
     ethr =  3.84E-05,  avg # of iterations =  2.0

     negative rho (up, down):  8.295E-08 0.000E+00

     total cpu time spent up to now is       76.6 secs

     total energy              =    -278.61361041 Ry
     estimated scf accuracy    <       0.00090024 Ry

     iteration #  7     ecut=    90.00 Ry     beta= 0.70
     Davidson diagonalization with overlap
     ethr =  1.41E-06,  avg # of iterations =  4.0

     negative rho (up, down):  9.014E-08 0.000E+00

     total cpu time spent up to now is       89.7 secs

     total energy              =    -278.61432959 Ry
     estimated scf accuracy    <       0.00040648 Ry

     iteration #  8     ecut=    90.00 Ry     beta= 0.70
     Davidson diagonalization with overlap
     ethr =  6.35E-07,  avg # of iterations =  2.0

     negative rho (up, down):  6.057E-08 0.000E+00

     total cpu time spent up to now is       98.9 secs

     total energy              =    -278.61420064 Ry
     estimated scf accuracy    <       0.00082745 Ry

     iteration #  9     ecut=    90.00 Ry     beta= 0.70
     Davidson diagonalization with overlap
     ethr =  6.35E-07,  avg # of iterations =  1.0

     negative rho (up, down):  4.301E-08 0.000E+00

     total cpu time spent up to now is      106.6 secs

     total energy              =    -278.61403826 Ry
     estimated scf accuracy    <       0.00044364 Ry

     iteration # 10     ecut=    90.00 Ry     beta= 0.70
     Davidson diagonalization with overlap
     ethr =  6.35E-07,  avg # of iterations =  2.0

     negative rho (up, down):  4.056E-08 0.000E+00

     total cpu time spent up to now is      117.0 secs

     total energy              =    -278.61408467 Ry
     estimated scf accuracy    <       0.00003605 Ry

     iteration # 11     ecut=    90.00 Ry     beta= 0.70
     Davidson diagonalization with overlap
     ethr =  5.63E-08,  avg # of iterations =  3.0

     negative rho (up, down):  4.229E-08 0.000E+00

     total cpu time spent up to now is      129.9 secs

     total energy              =    -278.61410048 Ry
     estimated scf accuracy    <       0.00000119 Ry

     iteration # 12     ecut=    90.00 Ry     beta= 0.70
     Davidson diagonalization with overlap
     ethr =  1.87E-09,  avg # of iterations =  2.9

     negative rho (up, down):  4.665E-08 0.000E+00

     total cpu time spent up to now is      141.8 secs

     total energy              =    -278.61410126 Ry
     estimated scf accuracy    <       0.00000093 Ry

     iteration # 13     ecut=    90.00 Ry     beta= 0.70
     Davidson diagonalization with overlap
     ethr =  1.46E-09,  avg # of iterations =  1.0

     negative rho (up, down):  4.629E-08 0.000E+00

     total cpu time spent up to now is      149.6 secs

     total energy              =    -278.61410119 Ry
     estimated scf accuracy    <       0.00000041 Ry

     iteration # 14     ecut=    90.00 Ry     beta= 0.70
     Davidson diagonalization with overlap
     ethr =  6.36E-10,  avg # of iterations =  2.0

     negative rho (up, down):  4.673E-08 0.000E+00

     total cpu time spent up to now is      158.4 secs

     total energy              =    -278.61410126 Ry
     estimated scf accuracy    <       0.00000012 Ry

     iteration # 15     ecut=    90.00 Ry     beta= 0.70
     Davidson diagonalization with overlap
     ethr =  1.82E-10,  avg # of iterations =  1.1

     negative rho (up, down):  4.621E-08 0.000E+00

     total cpu time spent up to now is      166.3 secs

     total energy              =    -278.61410119 Ry
     estimated scf accuracy    <       0.00000023 Ry

     iteration # 16     ecut=    90.00 Ry     beta= 0.70
     Davidson diagonalization with overlap
     ethr =  1.82E-10,  avg # of iterations =  2.0

     negative rho (up, down):  4.574E-08 0.000E+00

     total cpu time spent up to now is      176.6 secs

     End of self-consistent calculation

     Number of k-points >= 100: set verbosity='high' to print the bands.

     highest occupied level (ev):    -4.5149

!    total energy              =    -278.61410117 Ry
     estimated scf accuracy    <       0.00000004 Ry

     The total energy is the sum of the following terms:
     one-electron contribution =    -250.35012532 Ry
     hartree contribution      =     144.63553591 Ry
     xc contribution           =     -69.57294158 Ry
     ewald contribution        =    -103.32657017 Ry

     convergence has been achieved in  16 iterations

     Forces acting on atoms (cartesian axes, Ry/au):

     atom    1 type  2   force =     0.00000000   -0.06515954    0.04750324
     atom    2 type  2   force =     0.00000000    0.06515955    0.04750336
     atom    3 type  2   force =     0.00000000   -0.06515952    0.04750325
     atom    4 type  2   force =     0.00000000    0.06515964    0.04750332
     atom    5 type  2   force =     0.00000000   -0.06668848    0.04513913
     atom    6 type  2   force =     0.00000000    0.06668816    0.04513893
     atom    7 type  2   force =     0.00000000   -0.06668842    0.04513908
     atom    8 type  2   force =     0.00000000    0.06668828    0.04513897
     atom    9 type  1   force =     0.00000000   -0.00320999   -0.07528776
     atom   10 type  1   force =     0.00000000    0.00321008   -0.07528777
     atom   11 type  1   force =     0.00000000   -0.00321000   -0.07528780
     atom   12 type  1   force =     0.00000000    0.00321008   -0.07528773
     atom   13 type  1   force =     0.00000000    0.06976253    0.02751582
     atom   14 type  1   force =     0.00000000   -0.06976246    0.02751587
     atom   15 type  1   force =     0.00000000    0.06976251    0.02751582
     atom   16 type  1   force =     0.00000000   -0.06976249    0.02751588
     atom   17 type  1   force =    -0.06363498    0.03322098   -0.02243518
     atom   18 type  1   force =     0.06363505   -0.03322097   -0.02243522
     atom   19 type  1   force =    -0.06363505   -0.03322097   -0.02243522
     atom   20 type  1   force =     0.06363498    0.03322098   -0.02243518
     atom   21 type  1   force =    -0.06363500    0.03322099   -0.02243520
     atom   22 type  1   force =     0.06363505   -0.03322096   -0.02243521
     atom   23 type  1   force =    -0.06363505   -0.03322096   -0.02243521
     atom   24 type  1   force =     0.06363500    0.03322099   -0.02243520

     Total force =     0.377372     Total SCF correction =     0.000124


     Computing stress (Cartesian axis) and pressure

          total   stress  (Ry/bohr**3)                   (kbar)     P=      -80.08
  -0.00055091   0.00000000   0.00000000          -81.04        0.00        0.00
   0.00000000  -0.00054388  -0.00000000            0.00      -80.01       -0.00
   0.00000000  -0.00000000  -0.00053830            0.00       -0.00      -79.19


     Writing all to output data dir ./iceIh/iceIh.save/ :
     XML data file, charge density, pseudopotentials, collected wavefunctions

     init_run     :      7.04s CPU      7.18s WALL (       1 calls)
     electrons    :    166.82s CPU    169.29s WALL (       1 calls)
     forces       :      0.73s CPU      0.75s WALL (       1 calls)
     stress       :     10.92s CPU     10.94s WALL (       1 calls)

     Called by init_run:
     wfcinit      :      4.78s CPU      4.85s WALL (       1 calls)
     potinit      :      1.60s CPU      1.64s WALL (       1 calls)
     hinit0       :      0.56s CPU      0.56s WALL (       1 calls)

     Called by electrons:
     c_bands      :    145.36s CPU    147.38s WALL (      16 calls)
     sum_band     :     20.06s CPU     20.24s WALL (      16 calls)
     v_of_rho     :      2.85s CPU      3.02s WALL (      17 calls)
     newd         :      0.04s CPU      0.05s WALL (      17 calls)
     mix_rho      :      0.05s CPU      0.06s WALL (      16 calls)
     vdW_kernel   :      1.51s CPU      1.52s WALL (       1 calls)

     Called by c_bands:
     init_us_2    :      2.89s CPU      2.98s WALL (    4025 calls)
     cegterg      :    139.28s CPU    140.42s WALL (    1840 calls)

     Called by *egterg:
     cdiaghg      :      9.66s CPU      9.70s WALL (    5874 calls)
     h_psi        :    109.60s CPU    110.66s WALL (    5989 calls)
     s_psi        :      4.70s CPU      4.73s WALL (    5989 calls)
     g_psi        :      0.40s CPU      0.41s WALL (    4034 calls)

     Called by h_psi:
     h_psi:calbec :      8.13s CPU      8.20s WALL (    5989 calls)
     vloc_psi     :     95.38s CPU     96.31s WALL (    5989 calls)
     add_vuspsi   :      5.04s CPU      5.07s WALL (    5989 calls)

     General routines
     calbec       :     10.66s CPU     10.76s WALL (    8404 calls)
     fft          :      1.21s CPU      1.23s WALL (    1089 calls)
     ffts         :      0.01s CPU      0.01s WALL (      16 calls)
     fftw         :     99.88s CPU    100.81s WALL (  393316 calls)

     Parallel routines

     PWSCF        :   3m 8.75s CPU   3m17.19s WALL


   This run was terminated on:  19:14:49  26Mar2026            

=------------------------------------------------------------------------------=
   JOB DONE.
=------------------------------------------------------------------------------=
