
     Program PWSCF v.7.3.1 starts on 26Mar2026 at 19:14:51 

     This program is part of the open-source Quantum ESPRESSO suite
     for quantum simulation of materials; please cite
         "P. Giannozzi et al., J. Phys.:Condens. Matter 21 395502 (2009);
         "P. Giannozzi et al., J. Phys.:Condens. Matter 29 465901 (2017);
         "P. Giannozzi et al., J. Chem. Phys. 152 154105 (2020);
          URL http://www.quantum-espresso.org", 
     in publications or presentations arising from this work. More details at
     http://www.quantum-espresso.org/quote

     Parallel version (MPI), running on   128 processors

     MPI processes distributed on     1 nodes
     235375 MiB available memory on the printing compute node when the environment starts

     Waiting for input...
     Reading input from standard input

     Current dimensions of program PWSCF are:
     Max number of different atomic species (ntypx) = 10
     Max number of k-points (npk) =  40000
     Max angular momentum in pseudopotentials (lmaxx) =  4

     IMPORTANT: XC functional enforced from input :
     Exchange-correlation= VDW-DF2
                           (   1   4  13   0   2   0   0)
     Any further DFT definition will be discarded
     Please, verify this is what you really want

     Found identity + ( -0.5000 -0.5000 -0.0000) symmetry
     This is a supercell, fractional translations are disabled

     K-points division:     npool     =       4
     R & G space division:  proc/nbgrp/npool/nimage =      32
     Subspace diagonalization in iterative solution of the eigenvalue problem:
     a serial algorithm will be used


     Parallelization info
     --------------------
     sticks:   dense  smooth     PW     G-vecs:    dense   smooth      PW
     Min         127     127     34                 7541     7541    1078
     Max         128     128     35                 7544     7544    1083
     Sum        4081    4081   1117               241361   241361   34619

     Using Slab Decomposition



     bravais-lattice index     =            8
     lattice parameter (alat)  =       9.0520  a.u.
     unit-cell volume          =    2091.2000 (a.u.)^3
     number of atoms/cell      =           24
     number of atomic types    =            2
     number of electrons       =        64.00
     number of Kohn-Sham states=           32
     kinetic-energy cutoff     =      90.0000  Ry
     charge density cutoff     =     360.0000  Ry
     scf convergence threshold =      1.0E-07
     mixing beta               =       0.7000
     number of iterations used =            8  plain     mixing
     Exchange-correlation= VDW-DF2
                           (   1   4  13   0   2   0   0)

     celldm(1)=   9.052029  celldm(2)=   1.732119  celldm(3)=   1.627721
     celldm(4)=   0.000000  celldm(5)=   0.000000  celldm(6)=   0.000000

     crystal axes: (cart. coord. in units of alat)
               a(1) = (   1.000000   0.000000   0.000000 )  
               a(2) = (   0.000000   1.732119   0.000000 )  
               a(3) = (   0.000000   0.000000   1.627721 )  

     reciprocal axes: (cart. coord. in units 2 pi/alat)
               b(1) = (  1.000000  0.000000  0.000000 )  
               b(2) = (  0.000000  0.577328  0.000000 )  
               b(3) = (  0.000000  0.000000  0.614356 )  


     PseudoPot. # 1 for H  read from file:
     ./H.pbe-van_ak.UPF
     MD5 check sum: 077eb6d537518a38cb46c6de387227b7
     Pseudo is Ultrasoft, Zval =  1.0
     Generated by new atomic code, or converted to UPF format
     Using radial grid of  615 points,  1 beta functions with: 
                l(1) =   0
     Q(r) pseudized with  8 coefficients,  rinner =    0.800

     PseudoPot. # 2 for O  read from file:
     ./O.pbe-van_ak.UPF
     MD5 check sum: 78c19812648e8988a0fe644b0f25305e
     Pseudo is Ultrasoft, Zval =  6.0
     Generated by new atomic code, or converted to UPF format
     Using radial grid of  737 points,  4 beta functions with: 
                l(1) =   0
                l(2) =   0
                l(3) =   1
                l(4) =   1
     Q(r) pseudized with  8 coefficients,  rinner =    0.800   0.800   0.800


     atomic species   valence    mass     pseudopotential
     H                 1.00     1.00800     H ( 1.00)
     O                 6.00    16.00000     O ( 1.00)

      2 Sym. Ops. (no inversion) found



   Cartesian axes

     site n.     atom                  positions (alat units)
         1        O      tau(   1) = (   0.0000000   1.1505053   0.0983911  )
         2        O      tau(   2) = (   0.0000000   0.5816137   0.9122516  )
         3        O      tau(   3) = (   0.5000000   0.2844458   0.0983911  )
         4        O      tau(   4) = (   0.5000000   1.4476733   0.9122516  )
         5        O      tau(   5) = (   0.5000000   1.4413210   1.5245781  )
         6        O      tau(   6) = (   0.5000000   0.2907980   0.7107175  )
         7        O      tau(   7) = (   0.0000000   0.5752615   1.5245780  )
         8        O      tau(   8) = (   0.0000000   1.1568575   0.7107175  )
         9        H      tau(   9) = (   0.0000000   1.1476935   0.3199225  )
        10        H      tau(  10) = (   0.0000000   0.5844255   1.1337830  )
        11        H      tau(  11) = (   0.5000000   0.2816340   0.3199225  )
        12        H      tau(  12) = (   0.5000000   1.4504851   1.1337830  )
        13        H      tau(  13) = (   0.0000000   0.9389577   0.0320281  )
        14        H      tau(  14) = (   0.0000000   0.7931613   0.8458886  )
        15        H      tau(  15) = (   0.5000000   0.0728982   0.0320281  )
        16        H      tau(  16) = (   0.5000000   1.6592209   0.8458886  )
        17        H      tau(  17) = (   0.6777387   1.3318248   1.5989889  )
        18        H      tau(  18) = (   0.3222613   0.4002942   0.7851284  )
        19        H      tau(  19) = (   0.6777387   0.4002942   0.7851284  )
        20        H      tau(  20) = (   0.3222613   1.3318248   1.5989889  )
        21        H      tau(  21) = (   0.1777387   0.4657653   1.5989889  )
        22        H      tau(  22) = (   0.8222613   1.2663538   0.7851284  )
        23        H      tau(  23) = (   0.1777387   1.2663538   0.7851284  )
        24        H      tau(  24) = (   0.8222613   0.4657653   1.5989889  )

     number of k points=   460

     Number of k-points >= 100: set verbosity='high' to print them.

     Dense  grid:   241361 G-vectors     FFT dimensions: (  60,  96,  90)

     Estimated max dynamical RAM per process >      62.92 MB

     Estimated total dynamical RAM >       7.69 GB

     Initial potential from superposition of free atoms

     starting charge      63.9998, renormalised to      64.0000


     %%%%%%%%%%%%%%%%%%%%%%%%%%%%%%%%%%%%%%%%%%%%%%%%%%%%%%%%%%%%%%%%%%%%%%%%
     %                                                                      %
     % You are using vdW-DF, which was implemented by the Thonhauser group. %
     % Please cite the following two papers that made this development      %
     % possible and the two reviews that describe the various versions:     %
     %                                                                      %
     %   T. Thonhauser et al., PRL 115, 136402 (2015).                      %
     %   T. Thonhauser et al., PRB 76, 125112 (2007).                       %
     %   K. Berland et al., Rep. Prog. Phys. 78, 066501 (2015).             %
     %   D.C. Langreth et al., J. Phys.: Condens. Matter 21, 084203 (2009). %
     %                                                                      %
     % If you are calculating stress with vdW-DF, please also cite:         %
     %                                                                      %
     %   R. Sabatini et al., J. Phys.: Condens. Matter 24, 424209 (2012).   %
     %                                                                      %
     %%%%%%%%%%%%%%%%%%%%%%%%%%%%%%%%%%%%%%%%%%%%%%%%%%%%%%%%%%%%%%%%%%%%%%%%

     %%%%%%%%%%%%%%%%%%%%%%%%%%%%%%%%%%%%%%%%%%%%%%%%%%%%%%%%%%%%%%%%%%%%%%%%
     %                                                                      %
     %  vdW-DF NEWS:                                                        %
     %                                                                      %
     %  * vdW-DF3 is now available. DOI: 10.1021/acs.jctc.0c00471           %
     %    use with input_dft = 'vdW-DF3-opt1' or 'vdW-DF3-opt2'             %
     %                                                                      %
     %  * Unscreened and range-separated hybrid vdW-DF-cx functionals       %
     %    DOI: 10.1063/1.4986522 and 10.1088/1361-648X/ac2ad2               %
     %    use with input_dft = 'vdW-DF-cx0'    and 'vdW-DF-ahcx'            %
     %  * Unscreened and range-separated hybrid vdW-DF2-b86r functionals    %
     %    DOI: 10.1063/1.4986522 and DOI: 10.1103/PhysRevX.12.041003        %
     %    use with input_dft = 'vdW-DF2-br0' and 'vdW-DF2-ahbr'             %
     %                                                                      %
     %%%%%%%%%%%%%%%%%%%%%%%%%%%%%%%%%%%%%%%%%%%%%%%%%%%%%%%%%%%%%%%%%%%%%%%%


     Starting wfcs are   48 randomized atomic wfcs

     total cpu time spent up to now is        7.2 secs

     per-process dynamical memory:    70.1 Mb

     Self-consistent Calculation

     iteration #  1     ecut=    90.00 Ry     beta= 0.70
     Davidson diagonalization with overlap
     ethr =  1.00E-02,  avg # of iterations =  2.0

     total cpu time spent up to now is       17.5 secs

     total energy              =    -277.22505716 Ry
     estimated scf accuracy    <       2.95798815 Ry

     iteration #  2     ecut=    90.00 Ry     beta= 0.70
     Davidson diagonalization with overlap
     ethr =  4.62E-03,  avg # of iterations =  3.0

     total cpu time spent up to now is       31.4 secs

     total energy              =    -278.16352112 Ry
     estimated scf accuracy    <       2.67045269 Ry

     iteration #  3     ecut=    90.00 Ry     beta= 0.70
     Davidson diagonalization with overlap
     ethr =  4.17E-03,  avg # of iterations =  2.0

     total cpu time spent up to now is       41.8 secs

     total energy              =    -278.49993121 Ry
     estimated scf accuracy    <       0.13365970 Ry

     iteration #  4     ecut=    90.00 Ry     beta= 0.70
     Davidson diagonalization with overlap
     ethr =  2.09E-04,  avg # of iterations =  4.0

     total cpu time spent up to now is       57.5 secs

     total energy              =    -278.60234102 Ry
     estimated scf accuracy    <       0.13835984 Ry

     iteration #  5     ecut=    90.00 Ry     beta= 0.70
     Davidson diagonalization with overlap
     ethr =  2.09E-04,  avg # of iterations =  1.5

     total cpu time spent up to now is       65.9 secs

     total energy              =    -278.60240120 Ry
     estimated scf accuracy    <       0.02478299 Ry

     iteration #  6     ecut=    90.00 Ry     beta= 0.70
     Davidson diagonalization with overlap
     ethr =  3.87E-05,  avg # of iterations =  2.0

     total cpu time spent up to now is       76.5 secs

     total energy              =    -278.60731369 Ry
     estimated scf accuracy    <       0.00088921 Ry

     iteration #  7     ecut=    90.00 Ry     beta= 0.70
     Davidson diagonalization with overlap
     ethr =  1.39E-06,  avg # of iterations =  3.8

     total cpu time spent up to now is       89.5 secs

     total energy              =    -278.60800573 Ry
     estimated scf accuracy    <       0.00038521 Ry

     iteration #  8     ecut=    90.00 Ry     beta= 0.70
     Davidson diagonalization with overlap
     ethr =  6.02E-07,  avg # of iterations =  2.0

     total cpu time spent up to now is       98.7 secs

     total energy              =    -278.60788451 Ry
     estimated scf accuracy    <       0.00078498 Ry

     iteration #  9     ecut=    90.00 Ry     beta= 0.70
     Davidson diagonalization with overlap
     ethr =  6.02E-07,  avg # of iterations =  1.0

     total cpu time spent up to now is      106.5 secs

     total energy              =    -278.60773109 Ry
     estimated scf accuracy    <       0.00041987 Ry

     iteration # 10     ecut=    90.00 Ry     beta= 0.70
     Davidson diagonalization with overlap
     ethr =  6.02E-07,  avg # of iterations =  2.0

     total cpu time spent up to now is      116.8 secs

     total energy              =    -278.60777441 Ry
     estimated scf accuracy    <       0.00003450 Ry

     iteration # 11     ecut=    90.00 Ry     beta= 0.70
     Davidson diagonalization with overlap
     ethr =  5.39E-08,  avg # of iterations =  3.0

     total cpu time spent up to now is      129.8 secs

     total energy              =    -278.60778961 Ry
     estimated scf accuracy    <       0.00000124 Ry

     iteration # 12     ecut=    90.00 Ry     beta= 0.70
     Davidson diagonalization with overlap
     ethr =  1.94E-09,  avg # of iterations =  2.8

     total cpu time spent up to now is      141.7 secs

     total energy              =    -278.60779033 Ry
     estimated scf accuracy    <       0.00000080 Ry

     iteration # 13     ecut=    90.00 Ry     beta= 0.70
     Davidson diagonalization with overlap
     ethr =  1.25E-09,  avg # of iterations =  1.3

     total cpu time spent up to now is      149.9 secs

     total energy              =    -278.60779033 Ry
     estimated scf accuracy    <       0.00000022 Ry

     iteration # 14     ecut=    90.00 Ry     beta= 0.70
     Davidson diagonalization with overlap
     ethr =  3.39E-10,  avg # of iterations =  2.0

     total cpu time spent up to now is      158.8 secs

     End of self-consistent calculation

     Number of k-points >= 100: set verbosity='high' to print the bands.

     highest occupied level (ev):    -4.5319

!    total energy              =    -278.60779026 Ry
     estimated scf accuracy    <       0.00000010 Ry

     The total energy is the sum of the following terms:
     one-electron contribution =    -250.70811346 Ry
     hartree contribution      =     144.77519355 Ry
     xc contribution           =     -69.54252306 Ry
     ewald contribution        =    -103.13234730 Ry

     convergence has been achieved in  14 iterations

     Forces acting on atoms (cartesian axes, Ry/au):

     atom    1 type  2   force =     0.00000000   -0.06702894    0.04876998
     atom    2 type  2   force =     0.00000000    0.06702946    0.04877013
     atom    3 type  2   force =     0.00000000   -0.06702786    0.04876872
     atom    4 type  2   force =     0.00000000    0.06702958    0.04877023
     atom    5 type  2   force =     0.00000000   -0.06843835    0.04621746
     atom    6 type  2   force =     0.00000000    0.06843835    0.04621745
     atom    7 type  2   force =     0.00000000   -0.06844149    0.04621828
     atom    8 type  2   force =     0.00000000    0.06843793    0.04621728
     atom    9 type  1   force =     0.00000000   -0.00332916   -0.07719426
     atom   10 type  1   force =     0.00000000    0.00332877   -0.07719379
     atom   11 type  1   force =     0.00000000   -0.00332902   -0.07719504
     atom   12 type  1   force =     0.00000000    0.00332904   -0.07719412
     atom   13 type  1   force =     0.00000000    0.07152267    0.02822910
     atom   14 type  1   force =     0.00000000   -0.07152314    0.02822930
     atom   15 type  1   force =     0.00000000    0.07152394    0.02822943
     atom   16 type  1   force =     0.00000000   -0.07152304    0.02822916
     atom   17 type  1   force =    -0.06526148    0.03405746   -0.02301104
     atom   18 type  1   force =     0.06526147   -0.03405751   -0.02301103
     atom   19 type  1   force =    -0.06526147   -0.03405751   -0.02301103
     atom   20 type  1   force =     0.06526148    0.03405746   -0.02301104
     atom   21 type  1   force =    -0.06526280    0.03405814   -0.02301161
     atom   22 type  1   force =     0.06526132   -0.03405747   -0.02301097
     atom   23 type  1   force =    -0.06526132   -0.03405747   -0.02301097
     atom   24 type  1   force =     0.06526280    0.03405814   -0.02301161

     Total force =     0.387148     Total SCF correction =     0.000269


     Computing stress (Cartesian axis) and pressure

          total   stress  (Ry/bohr**3)                   (kbar)     P=      -81.86
  -0.00056290   0.00000000   0.00000000          -82.81        0.00        0.00
   0.00000000  -0.00055619  -0.00000000            0.00      -81.82       -0.00
   0.00000000  -0.00000000  -0.00055031            0.00       -0.00      -80.95


     Writing all to output data dir ./iceIh/iceIh.save/ :
     XML data file, charge density, pseudopotentials, collected wavefunctions

     init_run     :      6.85s CPU      7.02s WALL (       1 calls)
     electrons    :    149.43s CPU    151.60s WALL (       1 calls)
     forces       :      0.75s CPU      0.76s WALL (       1 calls)
     stress       :     10.93s CPU     10.96s WALL (       1 calls)

     Called by init_run:
     wfcinit      :      4.61s CPU      4.69s WALL (       1 calls)
     potinit      :      1.59s CPU      1.64s WALL (       1 calls)
     hinit0       :      0.56s CPU      0.57s WALL (       1 calls)

     Called by electrons:
     c_bands      :    130.64s CPU    132.43s WALL (      14 calls)
     sum_band     :     17.53s CPU     17.72s WALL (      14 calls)
     v_of_rho     :      2.72s CPU      2.86s WALL (      15 calls)
     newd         :      0.03s CPU      0.04s WALL (      15 calls)
     mix_rho      :      0.05s CPU      0.05s WALL (      14 calls)
     vdW_kernel   :      1.50s CPU      1.52s WALL (       1 calls)

     Called by c_bands:
     init_us_2    :      2.56s CPU      2.65s WALL (    3565 calls)
     cegterg      :    124.88s CPU    125.87s WALL (    1610 calls)

     Called by *egterg:
     cdiaghg      :      8.78s CPU      8.80s WALL (    5271 calls)
     h_psi        :     97.92s CPU     98.89s WALL (    5386 calls)
     s_psi        :      4.21s CPU      4.23s WALL (    5386 calls)
     g_psi        :      0.37s CPU      0.37s WALL (    3661 calls)

     Called by h_psi:
     h_psi:calbec :      7.38s CPU      7.43s WALL (    5386 calls)
     vloc_psi     :     85.11s CPU     85.98s WALL (    5386 calls)
     add_vuspsi   :      4.43s CPU      4.46s WALL (    5386 calls)

     General routines
     calbec       :      9.67s CPU      9.74s WALL (    7571 calls)
     fft          :      1.17s CPU      1.19s WALL (     967 calls)
     ffts         :      0.01s CPU      0.01s WALL (      14 calls)
     fftw         :     88.77s CPU     89.64s WALL (  351150 calls)

     Parallel routines

     PWSCF        :   2m51.78s CPU   2m59.43s WALL


   This run was terminated on:  19:17:51  26Mar2026            

=------------------------------------------------------------------------------=
   JOB DONE.
=------------------------------------------------------------------------------=
