
     Program PWSCF v.7.3.1 starts on  2Apr2026 at  6:53:17 

     This program is part of the open-source Quantum ESPRESSO suite
     for quantum simulation of materials; please cite
         "P. Giannozzi et al., J. Phys.:Condens. Matter 21 395502 (2009);
         "P. Giannozzi et al., J. Phys.:Condens. Matter 29 465901 (2017);
         "P. Giannozzi et al., J. Chem. Phys. 152 154105 (2020);
          URL http://www.quantum-espresso.org", 
     in publications or presentations arising from this work. More details at
     http://www.quantum-espresso.org/quote

     Parallel version (MPI), running on   128 processors

     MPI processes distributed on     1 nodes
     235244 MiB available memory on the printing compute node when the environment starts

     Waiting for input...
     Reading input from standard input

     Current dimensions of program PWSCF are:
     Max number of different atomic species (ntypx) = 10
     Max number of k-points (npk) =  40000
     Max angular momentum in pseudopotentials (lmaxx) =  4

     IMPORTANT: XC functional enforced from input :
     Exchange-correlation= VDW-DF2
                           (   1   4  13   0   2   0   0)
     Any further DFT definition will be discarded
     Please, verify this is what you really want

     Found identity + ( -0.5000 -0.5000  0.0000) symmetry
     This is a supercell, fractional translations are disabled

     K-points division:     npool     =       4
     R & G space division:  proc/nbgrp/npool/nimage =      32
     Subspace diagonalization in iterative solution of the eigenvalue problem:
     a serial algorithm will be used


     Parallelization info
     --------------------
     sticks:   dense  smooth     PW     G-vecs:    dense   smooth      PW
     Min         127     127     34                 7577     7577    1082
     Max         128     128     35                 7584     7584    1089
     Sum        4081    4081   1117               242557   242557   34763

     Using Slab Decomposition



     bravais-lattice index     =            8
     lattice parameter (alat)  =       9.0690  a.u.
     unit-cell volume          =    2103.0147 (a.u.)^3
     number of atoms/cell      =           24
     number of atomic types    =            2
     number of electrons       =        64.00
     number of Kohn-Sham states=           32
     kinetic-energy cutoff     =      90.0000  Ry
     charge density cutoff     =     360.0000  Ry
     scf convergence threshold =      1.0E-07
     mixing beta               =       0.7000
     number of iterations used =            8  plain     mixing
     energy convergence thresh.=      1.0E-04
     force convergence thresh. =      1.0E-03
     Exchange-correlation= VDW-DF2
                           (   1   4  13   0   2   0   0)
     nstep                     =           50


     celldm(1)=   9.069044  celldm(2)=   1.732119  celldm(3)=   1.627721
     celldm(4)=   0.000000  celldm(5)=   0.000000  celldm(6)=   0.000000

     crystal axes: (cart. coord. in units of alat)
               a(1) = (   1.000000   0.000000   0.000000 )  
               a(2) = (   0.000000   1.732119   0.000000 )  
               a(3) = (   0.000000   0.000000   1.627721 )  

     reciprocal axes: (cart. coord. in units 2 pi/alat)
               b(1) = (  1.000000  0.000000  0.000000 )  
               b(2) = (  0.000000  0.577328  0.000000 )  
               b(3) = (  0.000000  0.000000  0.614356 )  


     PseudoPot. # 1 for H  read from file:
     ./H.pbe-van_ak.UPF
     MD5 check sum: 077eb6d537518a38cb46c6de387227b7
     Pseudo is Ultrasoft, Zval =  1.0
     Generated by new atomic code, or converted to UPF format
     Using radial grid of  615 points,  1 beta functions with: 
                l(1) =   0
     Q(r) pseudized with  8 coefficients,  rinner =    0.800

     PseudoPot. # 2 for O  read from file:
     ./O.pbe-van_ak.UPF
     MD5 check sum: 78c19812648e8988a0fe644b0f25305e
     Pseudo is Ultrasoft, Zval =  6.0
     Generated by new atomic code, or converted to UPF format
     Using radial grid of  737 points,  4 beta functions with: 
                l(1) =   0
                l(2) =   0
                l(3) =   1
                l(4) =   1
     Q(r) pseudized with  8 coefficients,  rinner =    0.800   0.800   0.800


     atomic species   valence    mass     pseudopotential
     H                 1.00     1.00800     H ( 1.00)
     O                 6.00    16.00000     O ( 1.00)

      2 Sym. Ops. (no inversion) found



   Cartesian axes

     site n.     atom                  positions (alat units)
         1        O      tau(   1) = (   0.0000000   1.1515127   0.1027092  )
         2        O      tau(   2) = (   0.0000000   0.5806063   0.9165697  )
         3        O      tau(   3) = (   0.5000000   0.2854532   0.1027092  )
         4        O      tau(   4) = (   0.5000000   1.4466659   0.9165697  )
         5        O      tau(   5) = (   0.5000000   1.4298643   1.5250118  )
         6        O      tau(   6) = (   0.5000000   0.3022548   0.7111513  )
         7        O      tau(   7) = (   0.0000000   0.5638048   1.5250118  )
         8        O      tau(   8) = (   0.0000000   1.1683143   0.7111513  )
         9        H      tau(   9) = (   0.0000000   1.1494343   0.3195216  )
        10        H      tau(  10) = (   0.0000000   0.5826848   1.1333822  )
        11        H      tau(  11) = (   0.5000000   0.2833747   0.3195216  )
        12        H      tau(  12) = (   0.5000000   1.4487443   1.1333822  )
        13        H      tau(  13) = (   0.0000000   0.9289355   0.0297873  )
        14        H      tau(  14) = (   0.0000000   0.8031836   0.8436478  )
        15        H      tau(  15) = (   0.5000000   0.0628759   0.0297873  )
        16        H      tau(  16) = (   0.5000000   1.6692431   0.8436478  )
        17        H      tau(  17) = (   0.6766000   1.3420459   1.5979337  )
        18        H      tau(  18) = (   0.3234000   0.3900732   0.7840732  )
        19        H      tau(  19) = (   0.6766000   0.3900732   0.7840732  )
        20        H      tau(  20) = (   0.3234000   1.3420459   1.5979337  )
        21        H      tau(  21) = (   0.1766000   0.4759863   1.5979337  )
        22        H      tau(  22) = (   0.8234000   1.2561327   0.7840732  )
        23        H      tau(  23) = (   0.1766000   1.2561327   0.7840732  )
        24        H      tau(  24) = (   0.8234000   0.4759863   1.5979337  )

     number of k points=   460

     Number of k-points >= 100: set verbosity='high' to print them.

     Dense  grid:   242557 G-vectors     FFT dimensions: (  60,  96,  90)

     Estimated max dynamical RAM per process >      63.24 MB

     Estimated total dynamical RAM >       7.73 GB

     Initial potential from superposition of free atoms

     starting charge      63.9998, renormalised to      64.0000


     %%%%%%%%%%%%%%%%%%%%%%%%%%%%%%%%%%%%%%%%%%%%%%%%%%%%%%%%%%%%%%%%%%%%%%%%
     %                                                                      %
     % You are using vdW-DF, which was implemented by the Thonhauser group. %
     % Please cite the following two papers that made this development      %
     % possible and the two reviews that describe the various versions:     %
     %                                                                      %
     %   T. Thonhauser et al., PRL 115, 136402 (2015).                      %
     %   T. Thonhauser et al., PRB 76, 125112 (2007).                       %
     %   K. Berland et al., Rep. Prog. Phys. 78, 066501 (2015).             %
     %   D.C. Langreth et al., J. Phys.: Condens. Matter 21, 084203 (2009). %
     %                                                                      %
     % If you are calculating stress with vdW-DF, please also cite:         %
     %                                                                      %
     %   R. Sabatini et al., J. Phys.: Condens. Matter 24, 424209 (2012).   %
     %                                                                      %
     %%%%%%%%%%%%%%%%%%%%%%%%%%%%%%%%%%%%%%%%%%%%%%%%%%%%%%%%%%%%%%%%%%%%%%%%

     %%%%%%%%%%%%%%%%%%%%%%%%%%%%%%%%%%%%%%%%%%%%%%%%%%%%%%%%%%%%%%%%%%%%%%%%
     %                                                                      %
     %  vdW-DF NEWS:                                                        %
     %                                                                      %
     %  * vdW-DF3 is now available. DOI: 10.1021/acs.jctc.0c00471           %
     %    use with input_dft = 'vdW-DF3-opt1' or 'vdW-DF3-opt2'             %
     %                                                                      %
     %  * Unscreened and range-separated hybrid vdW-DF-cx functionals       %
     %    DOI: 10.1063/1.4986522 and 10.1088/1361-648X/ac2ad2               %
     %    use with input_dft = 'vdW-DF-cx0'    and 'vdW-DF-ahcx'            %
     %  * Unscreened and range-separated hybrid vdW-DF2-b86r functionals    %
     %    DOI: 10.1063/1.4986522 and DOI: 10.1103/PhysRevX.12.041003        %
     %    use with input_dft = 'vdW-DF2-br0' and 'vdW-DF2-ahbr'             %
     %                                                                      %
     %%%%%%%%%%%%%%%%%%%%%%%%%%%%%%%%%%%%%%%%%%%%%%%%%%%%%%%%%%%%%%%%%%%%%%%%


     Starting wfcs are   48 randomized atomic wfcs

     total cpu time spent up to now is        7.4 secs

     per-process dynamical memory:    71.5 Mb

     Self-consistent Calculation

     iteration #  1     ecut=    90.00 Ry     beta= 0.70
     Davidson diagonalization with overlap
     ethr =  1.00E-02,  avg # of iterations =  2.0

     total cpu time spent up to now is       17.6 secs

     total energy              =    -277.15347743 Ry
     estimated scf accuracy    <       3.10085232 Ry

     iteration #  2     ecut=    90.00 Ry     beta= 0.70
     Davidson diagonalization with overlap
     ethr =  4.85E-03,  avg # of iterations =  3.0

     total cpu time spent up to now is       31.5 secs

     total energy              =    -278.13262878 Ry
     estimated scf accuracy    <       2.74429320 Ry

     iteration #  3     ecut=    90.00 Ry     beta= 0.70
     Davidson diagonalization with overlap
     ethr =  4.29E-03,  avg # of iterations =  2.0

     total cpu time spent up to now is       41.8 secs

     total energy              =    -278.48589242 Ry
     estimated scf accuracy    <       0.13238695 Ry

     iteration #  4     ecut=    90.00 Ry     beta= 0.70
     Davidson diagonalization with overlap
     ethr =  2.07E-04,  avg # of iterations =  4.0

     total cpu time spent up to now is       57.5 secs

     total energy              =    -278.58818994 Ry
     estimated scf accuracy    <       0.13375995 Ry

     iteration #  5     ecut=    90.00 Ry     beta= 0.70
     Davidson diagonalization with overlap
     ethr =  2.07E-04,  avg # of iterations =  1.0

     negative rho (up, down):  2.632E-08 0.000E+00

     total cpu time spent up to now is       65.2 secs

     total energy              =    -278.59148192 Ry
     estimated scf accuracy    <       0.02433636 Ry

     iteration #  6     ecut=    90.00 Ry     beta= 0.70
     Davidson diagonalization with overlap
     ethr =  3.80E-05,  avg # of iterations =  2.0

     negative rho (up, down):  2.972E-07 0.000E+00

     total cpu time spent up to now is       74.8 secs

     total energy              =    -278.59099498 Ry
     estimated scf accuracy    <       0.00752323 Ry

     iteration #  7     ecut=    90.00 Ry     beta= 0.70
     Davidson diagonalization with overlap
     ethr =  1.18E-05,  avg # of iterations =  3.0

     negative rho (up, down):  4.190E-07 0.000E+00

     total cpu time spent up to now is       87.2 secs

     total energy              =    -278.59339428 Ry
     estimated scf accuracy    <       0.00007112 Ry

     iteration #  8     ecut=    90.00 Ry     beta= 0.70
     Davidson diagonalization with overlap
     ethr =  1.11E-07,  avg # of iterations =  7.0

     negative rho (up, down):  3.278E-07 0.000E+00

     total cpu time spent up to now is      108.2 secs

     total energy              =    -278.59343883 Ry
     estimated scf accuracy    <       0.00218471 Ry

     iteration #  9     ecut=    90.00 Ry     beta= 0.70
     Davidson diagonalization with overlap
     ethr =  1.11E-07,  avg # of iterations =  4.0

     negative rho (up, down):  1.901E-07 0.000E+00

     total cpu time spent up to now is      123.6 secs

     total energy              =    -278.59317311 Ry
     estimated scf accuracy    <       0.00065942 Ry

     iteration # 10     ecut=    90.00 Ry     beta= 0.70
     Davidson diagonalization with overlap
     ethr =  1.11E-07,  avg # of iterations =  6.0

     negative rho (up, down):  2.261E-07 0.000E+00

     total cpu time spent up to now is      142.7 secs

     total energy              =    -278.59336150 Ry
     estimated scf accuracy    <       0.00004365 Ry

     iteration # 11     ecut=    90.00 Ry     beta= 0.70
     Davidson diagonalization with overlap
     ethr =  6.82E-08,  avg # of iterations =  2.0

     negative rho (up, down):  2.434E-07 0.000E+00

     total cpu time spent up to now is      152.6 secs

     total energy              =    -278.59336581 Ry
     estimated scf accuracy    <       0.00000246 Ry

     iteration # 12     ecut=    90.00 Ry     beta= 0.70
     Davidson diagonalization with overlap
     ethr =  3.84E-09,  avg # of iterations =  5.0

     negative rho (up, down):  2.364E-07 0.000E+00

     total cpu time spent up to now is      168.2 secs

     total energy              =    -278.59336663 Ry
     estimated scf accuracy    <       0.00000385 Ry

     iteration # 13     ecut=    90.00 Ry     beta= 0.70
     Davidson diagonalization with overlap
     ethr =  3.84E-09,  avg # of iterations =  3.0

     negative rho (up, down):  2.371E-07 0.000E+00

     total cpu time spent up to now is      180.6 secs

     total energy              =    -278.59336759 Ry
     estimated scf accuracy    <       0.00000011 Ry

     iteration # 14     ecut=    90.00 Ry     beta= 0.70
     Davidson diagonalization with overlap
     ethr =  1.78E-10,  avg # of iterations =  4.4

     negative rho (up, down):  2.403E-07 0.000E+00

     total cpu time spent up to now is      195.7 secs

     total energy              =    -278.59336755 Ry
     estimated scf accuracy    <       0.00000032 Ry

     iteration # 15     ecut=    90.00 Ry     beta= 0.70
     Davidson diagonalization with overlap
     ethr =  1.78E-10,  avg # of iterations =  2.7

     negative rho (up, down):  2.410E-07 0.000E+00

     total cpu time spent up to now is      207.7 secs

     End of self-consistent calculation

     Number of k-points >= 100: set verbosity='high' to print the bands.

     highest occupied level (ev):    -4.4384

!    total energy              =    -278.59336757 Ry
     estimated scf accuracy    <       0.00000002 Ry

     The total energy is the sum of the following terms:
     one-electron contribution =    -253.21321235 Ry
     hartree contribution      =     145.91912474 Ry
     xc contribution           =     -69.72375637 Ry
     ewald contribution        =    -101.57552358 Ry

     convergence has been achieved in  15 iterations

     Forces acting on atoms (cartesian axes, Ry/au):

     atom    1 type  2   force =     0.00000000   -0.10585899    0.01293219
     atom    2 type  2   force =     0.00000000    0.10585717    0.01293188
     atom    3 type  2   force =     0.00000000   -0.10585753    0.01293152
     atom    4 type  2   force =     0.00000000    0.10585851    0.01293248
     atom    5 type  2   force =     0.00000000    0.01598768    0.00010900
     atom    6 type  2   force =     0.00000000   -0.01598688    0.00010991
     atom    7 type  2   force =     0.00000000    0.01598743    0.00010958
     atom    8 type  2   force =     0.00000000   -0.01598719    0.00010931
     atom    9 type  1   force =     0.00000000   -0.00728721   -0.06240629
     atom   10 type  1   force =     0.00000000    0.00728693   -0.06240811
     atom   11 type  1   force =     0.00000000   -0.00728693   -0.06240733
     atom   12 type  1   force =     0.00000000    0.00728720   -0.06240706
     atom   13 type  1   force =     0.00000000    0.11276722    0.04507592
     atom   14 type  1   force =     0.00000000   -0.11276846    0.04507597
     atom   15 type  1   force =     0.00000000    0.11276818    0.04507594
     atom   16 type  1   force =     0.00000000   -0.11276749    0.04507592
     atom   17 type  1   force =    -0.03327717   -0.00734021    0.00214486
     atom   18 type  1   force =     0.03327688    0.00734043    0.00214495
     atom   19 type  1   force =    -0.03327688    0.00734043    0.00214495
     atom   20 type  1   force =     0.03327717   -0.00734021    0.00214486
     atom   21 type  1   force =    -0.03327694   -0.00734033    0.00214493
     atom   22 type  1   force =     0.03327713    0.00734029    0.00214485
     atom   23 type  1   force =    -0.03327713    0.00734029    0.00214485
     atom   24 type  1   force =     0.03327694   -0.00734033    0.00214493

     Total force =     0.361423     Total SCF correction =     0.000075


     Computing stress (Cartesian axis) and pressure

          total   stress  (Ry/bohr**3)                   (kbar)     P=      -66.52
  -0.00032845   0.00000000   0.00000000          -48.32        0.00        0.00
   0.00000000  -0.00061354  -0.00000000            0.00      -90.25       -0.00
   0.00000000  -0.00000000  -0.00041451            0.00       -0.00      -60.98


     BFGS Geometry Optimization
     Energy error            =      0.0E+00 Ry
     Gradient error          =      1.1E-01 Ry/Bohr

     number of scf cycles    =   1
     number of bfgs steps    =   0

     energy             new  =    -278.5933675652 Ry

     new trust radius        =       0.1214436872 bohr
     new conv_thr            =       0.0000001000 Ry


ATOMIC_POSITIONS (crystal)
O                0.0000000000        0.6580610963        0.0639760565
O                0.0000000000        0.3419387881        0.5639760127
O                0.5000000000        0.1580611891        0.0639760110
O                0.5000000000        0.8419388732        0.5639760531
O                0.5000000000        0.8265177729        0.9369074037
O                0.5000000000        0.1734822782        0.4369074355
O                0.0000000000        0.3265177569        0.9369074430
O                0.0000000000        0.6734822582        0.4369073949
H                0.0000000000        0.6631361304        0.1920724681
H                0.0000000000        0.3368638518        0.6920723748
H                0.5000000000        0.1631361481        0.1920723981
H                0.5000000000        0.8368638686        0.6920724460
H                0.0000000000        0.5434786676        0.0213535372
H                0.0000000000        0.4565212532        0.5213535365
H                0.5000000000        0.0434787287        0.0213535390
H                0.5000000000        0.9565213155        0.5213535334
H                0.6729306652        0.7743327315        0.9818453005
H                0.3270693024        0.2256672824        0.4818453062
H                0.6729306976        0.2256672824        0.4818453062
H                0.3270693348        0.7743327315        0.9818453005
H                0.1729306904        0.2743327242        0.9818453049
H                0.8270693303        0.7256672736        0.4818452996
H                0.1729306697        0.7256672736        0.4818452996
H                0.8270693096        0.2743327242        0.9818453049



     Writing config-only to output data dir ./iceIh_vdw/iceIh_vdw.save/ :
     XML data file
     NEW-OLD atomic charge density approx. for the potential

     negative rho (up, down):  4.356E-07 0.000E+00

     total cpu time spent up to now is      219.8 secs

     per-process dynamical memory:    74.0 Mb

     Self-consistent Calculation

     iteration #  1     ecut=    90.00 Ry     beta= 0.70
     Davidson diagonalization with overlap
     ethr =  1.00E-06,  avg # of iterations =  9.0

     negative rho (up, down):  9.580E-07 0.000E+00

     total cpu time spent up to now is      248.7 secs

     total energy              =    -278.66638301 Ry
     estimated scf accuracy    <       0.03332732 Ry

     iteration #  2     ecut=    90.00 Ry     beta= 0.70
     Davidson diagonalization with overlap
     ethr =  5.21E-05,  avg # of iterations =  3.6

     negative rho (up, down):  8.741E-07 0.000E+00

     total cpu time spent up to now is      261.3 secs

     total energy              =    -278.67394937 Ry
     estimated scf accuracy    <       0.02590339 Ry

     iteration #  3     ecut=    90.00 Ry     beta= 0.70
     Davidson diagonalization with overlap
     ethr =  4.05E-05,  avg # of iterations =  2.6

     negative rho (up, down):  1.052E-06 0.000E+00

     total cpu time spent up to now is      272.2 secs

     total energy              =    -278.67917221 Ry
     estimated scf accuracy    <       0.00037791 Ry

     iteration #  4     ecut=    90.00 Ry     beta= 0.70
     Davidson diagonalization with overlap
     ethr =  5.90E-07,  avg # of iterations =  5.0

     negative rho (up, down):  1.133E-06 0.000E+00

     total cpu time spent up to now is      288.3 secs

     total energy              =    -278.67948825 Ry
     estimated scf accuracy    <       0.00047209 Ry

     iteration #  5     ecut=    90.00 Ry     beta= 0.70
     Davidson diagonalization with overlap
     ethr =  5.90E-07,  avg # of iterations =  2.0

     negative rho (up, down):  1.174E-06 0.000E+00

     total cpu time spent up to now is      298.1 secs

     total energy              =    -278.67952530 Ry
     estimated scf accuracy    <       0.00004365 Ry

     iteration #  6     ecut=    90.00 Ry     beta= 0.70
     Davidson diagonalization with overlap
     ethr =  6.82E-08,  avg # of iterations =  4.6

     negative rho (up, down):  1.171E-06 0.000E+00

     total cpu time spent up to now is      313.5 secs

     total energy              =    -278.67954871 Ry
     estimated scf accuracy    <       0.00003756 Ry

     iteration #  7     ecut=    90.00 Ry     beta= 0.70
     Davidson diagonalization with overlap
     ethr =  5.87E-08,  avg # of iterations =  2.0

     negative rho (up, down):  1.163E-06 0.000E+00

     total cpu time spent up to now is      322.8 secs

     total energy              =    -278.67955005 Ry
     estimated scf accuracy    <       0.00000514 Ry

     iteration #  8     ecut=    90.00 Ry     beta= 0.70
     Davidson diagonalization with overlap
     ethr =  8.03E-09,  avg # of iterations =  3.9

     negative rho (up, down):  1.163E-06 0.000E+00

     total cpu time spent up to now is      336.0 secs

     total energy              =    -278.67955258 Ry
     estimated scf accuracy    <       0.00000105 Ry

     iteration #  9     ecut=    90.00 Ry     beta= 0.70
     Davidson diagonalization with overlap
     ethr =  1.65E-09,  avg # of iterations =  2.0

     negative rho (up, down):  1.164E-06 0.000E+00

     total cpu time spent up to now is      345.2 secs

     total energy              =    -278.67955256 Ry
     estimated scf accuracy    <       0.00000039 Ry

     iteration # 10     ecut=    90.00 Ry     beta= 0.70
     Davidson diagonalization with overlap
     ethr =  6.12E-10,  avg # of iterations =  2.1

     negative rho (up, down):  1.165E-06 0.000E+00

     total cpu time spent up to now is      354.3 secs

     End of self-consistent calculation

     Number of k-points >= 100: set verbosity='high' to print the bands.

     highest occupied level (ev):    -4.6177

!    total energy              =    -278.67955252 Ry
     estimated scf accuracy    <       0.00000008 Ry

     The total energy is the sum of the following terms:
     one-electron contribution =    -258.12907453 Ry
     hartree contribution      =     148.17353818 Ry
     xc contribution           =     -70.19584728 Ry
     ewald contribution        =     -98.52816890 Ry

     convergence has been achieved in  10 iterations

     Forces acting on atoms (cartesian axes, Ry/au):

     atom    1 type  2   force =     0.00000000   -0.00224693   -0.00576661
     atom    2 type  2   force =     0.00000000    0.00224750   -0.00576713
     atom    3 type  2   force =     0.00000000   -0.00224736   -0.00576682
     atom    4 type  2   force =     0.00000000    0.00224716   -0.00576687
     atom    5 type  2   force =     0.00000000    0.01059204   -0.00330071
     atom    6 type  2   force =     0.00000000   -0.01059228   -0.00330092
     atom    7 type  2   force =     0.00000000    0.01059214   -0.00330085
     atom    8 type  2   force =     0.00000000   -0.01059216   -0.00330078
     atom    9 type  1   force =     0.00000000   -0.01616868   -0.01732910
     atom   10 type  1   force =     0.00000000    0.01616847   -0.01732848
     atom   11 type  1   force =     0.00000000   -0.01616850   -0.01732877
     atom   12 type  1   force =     0.00000000    0.01616863   -0.01732887
     atom   13 type  1   force =     0.00000000    0.02242176    0.02283090
     atom   14 type  1   force =     0.00000000   -0.02242204    0.02283080
     atom   15 type  1   force =     0.00000000    0.02242197    0.02283080
     atom   16 type  1   force =     0.00000000   -0.02242191    0.02283091
     atom   17 type  1   force =    -0.02419528   -0.00747032    0.00178277
     atom   18 type  1   force =     0.02419527    0.00747041    0.00178285
     atom   19 type  1   force =    -0.02419527    0.00747041    0.00178285
     atom   20 type  1   force =     0.02419528   -0.00747032    0.00178277
     atom   21 type  1   force =    -0.02419530   -0.00747036    0.00178282
     atom   22 type  1   force =     0.02419523    0.00747037    0.00178281
     atom   23 type  1   force =    -0.02419523    0.00747037    0.00178281
     atom   24 type  1   force =     0.02419530   -0.00747036    0.00178282

     Total force =     0.110198     Total SCF correction =     0.000247


     Computing stress (Cartesian axis) and pressure

          total   stress  (Ry/bohr**3)                   (kbar)     P=      -31.21
  -0.00025659   0.00000000   0.00000000          -37.75        0.00        0.00
   0.00000000  -0.00018478   0.00000000            0.00      -27.18        0.00
   0.00000000   0.00000000  -0.00019508            0.00        0.00      -28.70

     Energy error            =      8.6E-02 Ry
     Gradient error          =      2.4E-02 Ry/Bohr

     number of scf cycles    =   2
     number of bfgs steps    =   1

     energy             old  =    -278.5933675652 Ry
     energy             new  =    -278.6795525212 Ry

     CASE: energy            _new < energy            _old

     new trust radius        =       0.0493629899 bohr
     new conv_thr            =       0.0000000242 Ry


ATOMIC_POSITIONS (crystal)
O                0.0000000000        0.6573487039        0.0635514701
O                0.0000000000        0.3426512168        0.5635513805
O                0.5000000000        0.1573487696        0.0635514029
O                0.5000000000        0.8426512818        0.5635514467
O                0.5000000000        0.8274502227        0.9366254027
O                0.5000000000        0.1725498133        0.4366254215
O                0.0000000000        0.3274502139        0.9366254334
O                0.0000000000        0.6725498007        0.4366253893
H                0.0000000000        0.6617987169        0.1902553693
H                0.0000000000        0.3382012465        0.6902553201
H                0.5000000000        0.1617987505        0.1902553221
H                0.5000000000        0.8382012780        0.6902553630
H                0.0000000000        0.5458488763        0.0235490464
H                0.0000000000        0.4541510159        0.5235490371
H                0.5000000000        0.0458489586        0.0235490395
H                0.5000000000        0.9541510932        0.5235490439
H                0.6692694906        0.7736948602        0.9820093912
H                0.3307304733        0.2263051618        0.4820094044
H                0.6692695267        0.2263051618        0.4820094044
H                0.3307305094        0.7736948602        0.9820093912
H                0.1692695144        0.2736948494        0.9820093999
H                0.8307304988        0.7263051492        0.4820093933
H                0.1692695012        0.7263051492        0.4820093933
H                0.8307304856        0.2736948494        0.9820093999



     Writing config-only to output data dir ./iceIh_vdw/iceIh_vdw.save/ :
     XML data file
     NEW-OLD atomic charge density approx. for the potential

     negative rho (up, down):  1.127E-06 0.000E+00

     total cpu time spent up to now is      366.4 secs

     per-process dynamical memory:    74.1 Mb

     Self-consistent Calculation

     iteration #  1     ecut=    90.00 Ry     beta= 0.70
     Davidson diagonalization with overlap
     ethr =  1.00E-06,  avg # of iterations =  6.3

     negative rho (up, down):  1.268E-06 0.000E+00

     total cpu time spent up to now is      385.9 secs

     total energy              =    -278.68835619 Ry
     estimated scf accuracy    <       0.00267074 Ry

     iteration #  2     ecut=    90.00 Ry     beta= 0.70
     Davidson diagonalization with overlap
     ethr =  4.17E-06,  avg # of iterations =  3.0

     negative rho (up, down):  1.185E-06 0.000E+00

     total cpu time spent up to now is      398.7 secs

     total energy              =    -278.68894459 Ry
     estimated scf accuracy    <       0.00154988 Ry

     iteration #  3     ecut=    90.00 Ry     beta= 0.70
     Davidson diagonalization with overlap
     ethr =  2.42E-06,  avg # of iterations =  2.4

     negative rho (up, down):  1.141E-06 0.000E+00

     total cpu time spent up to now is      409.4 secs

     total energy              =    -278.68925298 Ry
     estimated scf accuracy    <       0.00003147 Ry

     iteration #  4     ecut=    90.00 Ry     beta= 0.70
     Davidson diagonalization with overlap
     ethr =  4.92E-08,  avg # of iterations =  4.3

     negative rho (up, down):  1.157E-06 0.000E+00

     total cpu time spent up to now is      425.1 secs

     total energy              =    -278.68927617 Ry
     estimated scf accuracy    <       0.00004450 Ry

     iteration #  5     ecut=    90.00 Ry     beta= 0.70
     Davidson diagonalization with overlap
     ethr =  4.92E-08,  avg # of iterations =  2.0

     negative rho (up, down):  1.170E-06 0.000E+00

     total cpu time spent up to now is      435.6 secs

     total energy              =    -278.68927745 Ry
     estimated scf accuracy    <       0.00000611 Ry

     iteration #  6     ecut=    90.00 Ry     beta= 0.70
     Davidson diagonalization with overlap
     ethr =  9.54E-09,  avg # of iterations =  3.5

     negative rho (up, down):  1.165E-06 0.000E+00

     total cpu time spent up to now is      449.2 secs

     total energy              =    -278.68928002 Ry
     estimated scf accuracy    <       0.00000197 Ry

     iteration #  7     ecut=    90.00 Ry     beta= 0.70
     Davidson diagonalization with overlap
     ethr =  3.07E-09,  avg # of iterations =  2.0

     negative rho (up, down):  1.163E-06 0.000E+00

     total cpu time spent up to now is      458.8 secs

     total energy              =    -278.68928020 Ry
     estimated scf accuracy    <       0.00000021 Ry

     iteration #  8     ecut=    90.00 Ry     beta= 0.70
     Davidson diagonalization with overlap
     ethr =  3.32E-10,  avg # of iterations =  3.1

     negative rho (up, down):  1.162E-06 0.000E+00

     total cpu time spent up to now is      470.8 secs

     End of self-consistent calculation

     Number of k-points >= 100: set verbosity='high' to print the bands.

     highest occupied level (ev):    -4.6804

!    total energy              =    -278.68928025 Ry
     estimated scf accuracy    <          3.0E-09 Ry

     The total energy is the sum of the following terms:
     one-electron contribution =    -260.05295359 Ry
     hartree contribution      =     149.03809672 Ry
     xc contribution           =     -70.37664000 Ry
     ewald contribution        =     -97.29778339 Ry

     convergence has been achieved in   8 iterations

     Forces acting on atoms (cartesian axes, Ry/au):

     atom    1 type  2   force =     0.00000000    0.03671768   -0.00219975
     atom    2 type  2   force =     0.00000000   -0.03671822   -0.00219886
     atom    3 type  2   force =     0.00000000    0.03671802   -0.00219923
     atom    4 type  2   force =     0.00000000   -0.03671794   -0.00219939
     atom    5 type  2   force =     0.00000000    0.01081093   -0.00463150
     atom    6 type  2   force =     0.00000000   -0.01081091   -0.00463150
     atom    7 type  2   force =     0.00000000    0.01081093   -0.00463155
     atom    8 type  2   force =     0.00000000   -0.01081091   -0.00463145
     atom    9 type  1   force =     0.00000000   -0.01195394   -0.00149051
     atom   10 type  1   force =     0.00000000    0.01195383   -0.00149096
     atom   11 type  1   force =     0.00000000   -0.01195385   -0.00149072
     atom   12 type  1   force =     0.00000000    0.01195392   -0.00149072
     atom   13 type  1   force =     0.00000000   -0.02045690    0.00430092
     atom   14 type  1   force =     0.00000000    0.02045759    0.00430055
     atom   15 type  1   force =     0.00000000   -0.02045735    0.00430066
     atom   16 type  1   force =     0.00000000    0.02045719    0.00430079
     atom   17 type  1   force =    -0.01132031   -0.00765688    0.00201042
     atom   18 type  1   force =     0.01132045    0.00765685    0.00201039
     atom   19 type  1   force =    -0.01132045    0.00765685    0.00201039
     atom   20 type  1   force =     0.01132031   -0.00765688    0.00201042
     atom   21 type  1   force =    -0.01132039   -0.00765686    0.00201041
     atom   22 type  1   force =     0.01132037    0.00765686    0.00201040
     atom   23 type  1   force =    -0.01132037    0.00765686    0.00201040
     atom   24 type  1   force =     0.01132039   -0.00765686    0.00201041

     Total force =     0.099098     Total SCF correction =     0.000041


     Computing stress (Cartesian axis) and pressure

          total   stress  (Ry/bohr**3)                   (kbar)     P=      -14.69
  -0.00017592   0.00000000   0.00000000          -25.88        0.00        0.00
   0.00000000  -0.00001605  -0.00000000            0.00       -2.36       -0.00
   0.00000000  -0.00000000  -0.00010757            0.00       -0.00      -15.82

     Energy error            =      9.7E-03 Ry
     Gradient error          =      3.7E-02 Ry/Bohr

     number of scf cycles    =   3
     number of bfgs steps    =   2

     energy             old  =    -278.6795525212 Ry
     energy             new  =    -278.6892802525 Ry

     CASE: energy            _new < energy            _old

     new trust radius        =       0.0310090434 bohr
     new conv_thr            =       0.0000000367 Ry


ATOMIC_POSITIONS (crystal)
O                0.0000000000        0.6591580712        0.0632760944
O                0.0000000000        0.3408418189        0.5632760506
O                0.5000000000        0.1591581555        0.0632760534
O                0.5000000000        0.8408419009        0.5632760903
O                0.5000000000        0.8286462060        0.9361696564
O                0.5000000000        0.1713538286        0.4361696741
O                0.0000000000        0.3286461989        0.9361696828
O                0.0000000000        0.6713538176        0.4361696463
H                0.0000000000        0.6603968400        0.1891268869
H                0.0000000000        0.3396031071        0.6891268139
H                0.5000000000        0.1603968877        0.1891268290
H                0.5000000000        0.8396031522        0.6891268683
H                0.0000000000        0.5458683595        0.0249593619
H                0.0000000000        0.4541315636        0.5249593221
H                0.5000000000        0.0458684230        0.0249593326
H                0.5000000000        0.9541316236        0.5249593502
H                0.6661815568        0.7728739340        0.9822340377
H                0.3338184200        0.2271260903        0.4822340518
H                0.6661815800        0.2271260903        0.4822340518
H                0.3338184432        0.7728739340        0.9822340377
H                0.1661815727        0.2728739223        0.9822340477
H                0.8338184368        0.7271260764        0.4822340391
H                0.1661815632        0.7271260764        0.4822340391
H                0.8338184273        0.2728739223        0.9822340477



     Writing config-only to output data dir ./iceIh_vdw/iceIh_vdw.save/ :
     XML data file
     NEW-OLD atomic charge density approx. for the potential

     negative rho (up, down):  1.210E-06 0.000E+00

     total cpu time spent up to now is      482.9 secs

     per-process dynamical memory:    74.1 Mb

     Self-consistent Calculation

     iteration #  1     ecut=    90.00 Ry     beta= 0.70
     Davidson diagonalization with overlap
     ethr =  1.00E-06,  avg # of iterations =  5.0

     negative rho (up, down):  1.048E-06 0.000E+00

     total cpu time spent up to now is      502.5 secs

     total energy              =    -278.69565241 Ry
     estimated scf accuracy    <       0.00082209 Ry

     iteration #  2     ecut=    90.00 Ry     beta= 0.70
     Davidson diagonalization with overlap
     ethr =  1.28E-06,  avg # of iterations =  2.0

     negative rho (up, down):  1.058E-06 0.000E+00

     total cpu time spent up to now is      513.0 secs

     total energy              =    -278.69578021 Ry
     estimated scf accuracy    <       0.00009820 Ry

     iteration #  3     ecut=    90.00 Ry     beta= 0.70
     Davidson diagonalization with overlap
     ethr =  1.53E-07,  avg # of iterations =  3.0

     negative rho (up, down):  1.048E-06 0.000E+00

     total cpu time spent up to now is      524.8 secs

     total energy              =    -278.69580451 Ry
     estimated scf accuracy    <       0.00002483 Ry

     iteration #  4     ecut=    90.00 Ry     beta= 0.70
     Davidson diagonalization with overlap
     ethr =  3.88E-08,  avg # of iterations =  2.9

     negative rho (up, down):  1.042E-06 0.000E+00

     total cpu time spent up to now is      535.7 secs

     total energy              =    -278.69580928 Ry
     estimated scf accuracy    <       0.00000079 Ry

     iteration #  5     ecut=    90.00 Ry     beta= 0.70
     Davidson diagonalization with overlap
     ethr =  1.23E-09,  avg # of iterations =  3.7

     negative rho (up, down):  1.044E-06 0.000E+00

     total cpu time spent up to now is      549.0 secs

     total energy              =    -278.69580955 Ry
     estimated scf accuracy    <       0.00000039 Ry

     iteration #  6     ecut=    90.00 Ry     beta= 0.70
     Davidson diagonalization with overlap
     ethr =  6.03E-10,  avg # of iterations =  2.0

     negative rho (up, down):  1.045E-06 0.000E+00

     total cpu time spent up to now is      558.8 secs

     total energy              =    -278.69580957 Ry
     estimated scf accuracy    <       0.00000004 Ry

     iteration #  7     ecut=    90.00 Ry     beta= 0.70
     Davidson diagonalization with overlap
     ethr =  6.89E-11,  avg # of iterations =  4.1

     negative rho (up, down):  1.044E-06 0.000E+00

     total cpu time spent up to now is      572.7 secs

     End of self-consistent calculation

     Number of k-points >= 100: set verbosity='high' to print the bands.

     highest occupied level (ev):    -4.6929

!    total energy              =    -278.69580958 Ry
     estimated scf accuracy    <       0.00000003 Ry

     The total energy is the sum of the following terms:
     one-electron contribution =    -260.20820249 Ry
     hartree contribution      =     149.09356809 Ry
     xc contribution           =     -70.38810135 Ry
     ewald contribution        =     -97.19307383 Ry

     convergence has been achieved in   7 iterations

     Forces acting on atoms (cartesian axes, Ry/au):

     atom    1 type  2   force =     0.00000000    0.01199250   -0.01415913
     atom    2 type  2   force =     0.00000000   -0.01199194   -0.01415957
     atom    3 type  2   force =     0.00000000    0.01199216   -0.01415936
     atom    4 type  2   force =     0.00000000   -0.01199229   -0.01415937
     atom    5 type  2   force =     0.00000000    0.00671633   -0.00045399
     atom    6 type  2   force =     0.00000000   -0.00671633   -0.00045401
     atom    7 type  2   force =     0.00000000    0.00671629   -0.00045402
     atom    8 type  2   force =     0.00000000   -0.00671636   -0.00045398
     atom    9 type  1   force =     0.00000000   -0.00469365    0.01114363
     atom   10 type  1   force =     0.00000000    0.00469357    0.01114405
     atom   11 type  1   force =     0.00000000   -0.00469359    0.01114388
     atom   12 type  1   force =     0.00000000    0.00469363    0.01114383
     atom   13 type  1   force =     0.00000000   -0.00402510    0.00282806
     atom   14 type  1   force =     0.00000000    0.00402471    0.00282810
     atom   15 type  1   force =     0.00000000   -0.00402489    0.00282807
     atom   16 type  1   force =     0.00000000    0.00402494    0.00282809
     atom   17 type  1   force =    -0.00238275   -0.00477160    0.00032072
     atom   18 type  1   force =     0.00238283    0.00477158    0.00032071
     atom   19 type  1   force =    -0.00238283    0.00477158    0.00032071
     atom   20 type  1   force =     0.00238275   -0.00477160    0.00032072
     atom   21 type  1   force =    -0.00238281   -0.00477158    0.00032071
     atom   22 type  1   force =     0.00238277    0.00477160    0.00032072
     atom   23 type  1   force =    -0.00238277    0.00477160    0.00032072
     atom   24 type  1   force =     0.00238281   -0.00477158    0.00032071

     Total force =     0.049684     Total SCF correction =     0.000159


     Computing stress (Cartesian axis) and pressure

          total   stress  (Ry/bohr**3)                   (kbar)     P=      -12.61
  -0.00012521   0.00000000   0.00000000          -18.42        0.00        0.00
   0.00000000  -0.00007436   0.00000000            0.00      -10.94        0.00
   0.00000000   0.00000000  -0.00005749            0.00        0.00       -8.46

     Energy error            =      6.5E-03 Ry
     Gradient error          =      1.4E-02 Ry/Bohr

     number of scf cycles    =   4
     number of bfgs steps    =   3

     energy             old  =    -278.6892802525 Ry
     energy             new  =    -278.6958095807 Ry

     CASE: energy            _new < energy            _old

     new trust radius        =       0.0302552404 bohr
     new conv_thr            =       0.0000000142 Ry


ATOMIC_POSITIONS (crystal)
O                0.0000000000        0.6604752238        0.0617807394
O                0.0000000000        0.3395247096        0.5617806594
O                0.5000000000        0.1604752820        0.0617806795
O                0.5000000000        0.8395247647        0.5617807159
O                0.5000000000        0.8297977757        0.9359449991
O                0.5000000000        0.1702022585        0.4359450146
O                0.0000000000        0.3297977660        0.9359450216
O                0.0000000000        0.6702022453        0.4359449907
H                0.0000000000        0.6593268617        0.1894568112
H                0.0000000000        0.3406730700        0.6894567747
H                0.5000000000        0.1593269222        0.1894567757
H                0.5000000000        0.8406731275        0.6894568091
H                0.0000000000        0.5460974545        0.0260916190
H                0.0000000000        0.4539024353        0.5260915734
H                0.5000000000        0.0460975372        0.0260915825
H                0.5000000000        0.9539025154        0.5260916082
H                0.6641982394        0.7720768974        0.9823629550
H                0.3358017519        0.2279231267        0.4823629694
H                0.6641982481        0.2279231267        0.4823629694
H                0.3358017606        0.7720768974        0.9823629550
H                0.1641982442        0.2720768872        0.9823629652
H                0.8358017569        0.7279231140        0.4823629564
H                0.1641982431        0.7279231140        0.4823629564
H                0.8358017558        0.2720768872        0.9823629652



     Writing config-only to output data dir ./iceIh_vdw/iceIh_vdw.save/ :
     XML data file
     NEW-OLD atomic charge density approx. for the potential

     negative rho (up, down):  1.040E-06 0.000E+00

     total cpu time spent up to now is      584.9 secs

     per-process dynamical memory:    74.2 Mb

     Self-consistent Calculation

     iteration #  1     ecut=    90.00 Ry     beta= 0.70
     Davidson diagonalization with overlap
     ethr =  1.00E-06,  avg # of iterations =  5.0

     negative rho (up, down):  8.004E-07 0.000E+00

     total cpu time spent up to now is      604.3 secs

     total energy              =    -278.69667794 Ry
     estimated scf accuracy    <       0.00122775 Ry

     iteration #  2     ecut=    90.00 Ry     beta= 0.70
     Davidson diagonalization with overlap
     ethr =  1.92E-06,  avg # of iterations =  3.0

     negative rho (up, down):  8.023E-07 0.000E+00

     total cpu time spent up to now is      616.9 secs

     total energy              =    -278.69693202 Ry
     estimated scf accuracy    <       0.00055302 Ry

     iteration #  3     ecut=    90.00 Ry     beta= 0.70
     Davidson diagonalization with overlap
     ethr =  8.64E-07,  avg # of iterations =  3.0

     negative rho (up, down):  8.143E-07 0.000E+00

     total cpu time spent up to now is      627.8 secs

     total energy              =    -278.69706060 Ry
     estimated scf accuracy    <       0.00001664 Ry

     iteration #  4     ecut=    90.00 Ry     beta= 0.70
     Davidson diagonalization with overlap
     ethr =  2.60E-08,  avg # of iterations =  3.0

     negative rho (up, down):  8.153E-07 0.000E+00

     total cpu time spent up to now is      640.6 secs

     total energy              =    -278.69706505 Ry
     estimated scf accuracy    <       0.00000875 Ry

     iteration #  5     ecut=    90.00 Ry     beta= 0.70
     Davidson diagonalization with overlap
     ethr =  1.37E-08,  avg # of iterations =  2.0

     negative rho (up, down):  8.147E-07 0.000E+00

     total cpu time spent up to now is      651.0 secs

     total energy              =    -278.69706607 Ry
     estimated scf accuracy    <       0.00000105 Ry

     iteration #  6     ecut=    90.00 Ry     beta= 0.70
     Davidson diagonalization with overlap
     ethr =  1.64E-09,  avg # of iterations =  3.5

     negative rho (up, down):  8.182E-07 0.000E+00

     total cpu time spent up to now is      664.1 secs

     total energy              =    -278.69706641 Ry
     estimated scf accuracy    <       0.00000035 Ry

     iteration #  7     ecut=    90.00 Ry     beta= 0.70
     Davidson diagonalization with overlap
     ethr =  5.53E-10,  avg # of iterations =  2.1

     negative rho (up, down):  8.188E-07 0.000E+00

     total cpu time spent up to now is      675.2 secs

     End of self-consistent calculation

     Number of k-points >= 100: set verbosity='high' to print the bands.

     highest occupied level (ev):    -4.6785

!    total energy              =    -278.69706649 Ry
     estimated scf accuracy    <          3.2E-09 Ry

     The total energy is the sum of the following terms:
     one-electron contribution =    -259.63509166 Ry
     hartree contribution      =     148.82112687 Ry
     xc contribution           =     -70.33159456 Ry
     ewald contribution        =     -97.55150713 Ry

     convergence has been achieved in   7 iterations

     Forces acting on atoms (cartesian axes, Ry/au):

     atom    1 type  2   force =     0.00000000    0.00159640    0.01236388
     atom    2 type  2   force =     0.00000000   -0.00159699    0.01236466
     atom    3 type  2   force =     0.00000000    0.00159674    0.01236433
     atom    4 type  2   force =     0.00000000   -0.00159665    0.01236424
     atom    5 type  2   force =     0.00000000   -0.00069192    0.00482005
     atom    6 type  2   force =     0.00000000    0.00069187    0.00482000
     atom    7 type  2   force =     0.00000000   -0.00069188    0.00481998
     atom    8 type  2   force =     0.00000000    0.00069190    0.00482007
     atom    9 type  1   force =     0.00000000    0.00165921   -0.00963159
     atom   10 type  1   force =     0.00000000   -0.00165921   -0.00963209
     atom   11 type  1   force =     0.00000000    0.00165921   -0.00963187
     atom   12 type  1   force =     0.00000000   -0.00165921   -0.00963184
     atom   13 type  1   force =     0.00000000    0.00007180   -0.00235925
     atom   14 type  1   force =     0.00000000   -0.00007115   -0.00235945
     atom   15 type  1   force =     0.00000000    0.00007142   -0.00235937
     atom   16 type  1   force =     0.00000000   -0.00007153   -0.00235934
     atom   17 type  1   force =     0.00143680   -0.00069658   -0.00259655
     atom   18 type  1   force =    -0.00143681    0.00069659   -0.00259655
     atom   19 type  1   force =     0.00143681    0.00069659   -0.00259655
     atom   20 type  1   force =    -0.00143680   -0.00069658   -0.00259655
     atom   21 type  1   force =     0.00143682   -0.00069659   -0.00259654
     atom   22 type  1   force =    -0.00143679    0.00069658   -0.00259656
     atom   23 type  1   force =     0.00143679    0.00069658   -0.00259656
     atom   24 type  1   force =    -0.00143682   -0.00069659   -0.00259654

     Total force =     0.034573     Total SCF correction =     0.000080


     Computing stress (Cartesian axis) and pressure

          total   stress  (Ry/bohr**3)                   (kbar)     P=      -16.45
  -0.00010459   0.00000000   0.00000000          -15.39        0.00        0.00
   0.00000000  -0.00009416  -0.00000000            0.00      -13.85       -0.00
   0.00000000  -0.00000000  -0.00013664            0.00       -0.00      -20.10

     Energy error            =      1.3E-03 Ry
     Gradient error          =      1.2E-02 Ry/Bohr

     number of scf cycles    =   5
     number of bfgs steps    =   4

     energy             old  =    -278.6958095807 Ry
     energy             new  =    -278.6970664869 Ry

     CASE: energy            _new < energy            _old

     new trust radius        =       0.0080826519 bohr
     new conv_thr            =       0.0000000124 Ry


ATOMIC_POSITIONS (crystal)
O                0.0000000000        0.6604219190        0.0623253012
O                0.0000000000        0.3395779945        0.5623252511
O                0.5000000000        0.1604219884        0.0623252588
O                0.5000000000        0.8395780611        0.5623252914
O                0.5000000000        0.8296837857        0.9362191383
O                0.5000000000        0.1703162462        0.4362191511
O                0.0000000000        0.3296837773        0.9362191575
O                0.0000000000        0.6703162344        0.4362191305
H                0.0000000000        0.6595089174        0.1891526006
H                0.0000000000        0.3404910154        0.6891525457
H                0.5000000000        0.1595089770        0.1891525548
H                0.5000000000        0.8404910719        0.6891525891
H                0.0000000000        0.5460951214        0.0258677170
H                0.0000000000        0.4539047924        0.5258676651
H                0.5000000000        0.0460951900        0.0258676771
H                0.5000000000        0.9539048581        0.5258677033
H                0.6645727778        0.7721006837        0.9822176603
H                0.3354272127        0.2278993405        0.4822176745
H                0.6645727873        0.2278993405        0.4822176745
H                0.3354272222        0.7721006837        0.9822176603
H                0.1645727843        0.2721006731        0.9822176707
H                0.8354272193        0.7278993276        0.4822176613
H                0.1645727807        0.7278993276        0.4822176613
H                0.8354272157        0.2721006731        0.9822176707



     Writing config-only to output data dir ./iceIh_vdw/iceIh_vdw.save/ :
     XML data file
     NEW-OLD atomic charge density approx. for the potential

     negative rho (up, down):  8.126E-07 0.000E+00

     total cpu time spent up to now is      687.3 secs

     per-process dynamical memory:    74.2 Mb

     Self-consistent Calculation

     iteration #  1     ecut=    90.00 Ry     beta= 0.70
     Davidson diagonalization with overlap
     ethr =  1.00E-06,  avg # of iterations =  3.7

     negative rho (up, down):  8.088E-07 0.000E+00

     total cpu time spent up to now is      702.3 secs

     total energy              =    -278.69748644 Ry
     estimated scf accuracy    <       0.00010701 Ry

     iteration #  2     ecut=    90.00 Ry     beta= 0.70
     Davidson diagonalization with overlap
     ethr =  1.67E-07,  avg # of iterations =  3.0

     negative rho (up, down):  8.065E-07 0.000E+00

     total cpu time spent up to now is      714.8 secs

     total energy              =    -278.69751021 Ry
     estimated scf accuracy    <       0.00003634 Ry

     iteration #  3     ecut=    90.00 Ry     beta= 0.70
     Davidson diagonalization with overlap
     ethr =  5.68E-08,  avg # of iterations =  3.0

     negative rho (up, down):  8.098E-07 0.000E+00

     total cpu time spent up to now is      726.1 secs

     total energy              =    -278.69751818 Ry
     estimated scf accuracy    <       0.00000111 Ry

     iteration #  4     ecut=    90.00 Ry     beta= 0.70
     Davidson diagonalization with overlap
     ethr =  1.74E-09,  avg # of iterations =  3.0

     negative rho (up, down):  8.117E-07 0.000E+00

     total cpu time spent up to now is      738.4 secs

     total energy              =    -278.69751846 Ry
     estimated scf accuracy    <       0.00000061 Ry

     iteration #  5     ecut=    90.00 Ry     beta= 0.70
     Davidson diagonalization with overlap
     ethr =  9.47E-10,  avg # of iterations =  2.2

     negative rho (up, down):  8.132E-07 0.000E+00

     total cpu time spent up to now is      749.0 secs

     total energy              =    -278.69751854 Ry
     estimated scf accuracy    <       0.00000007 Ry

     iteration #  6     ecut=    90.00 Ry     beta= 0.70
     Davidson diagonalization with overlap
     ethr =  1.03E-10,  avg # of iterations =  3.1

     negative rho (up, down):  8.128E-07 0.000E+00

     total cpu time spent up to now is      762.6 secs

     total energy              =    -278.69751856 Ry
     estimated scf accuracy    <       0.00000003 Ry

     iteration #  7     ecut=    90.00 Ry     beta= 0.70
     Davidson diagonalization with overlap
     ethr =  5.42E-11,  avg # of iterations =  2.0

     negative rho (up, down):  8.124E-07 0.000E+00

     total cpu time spent up to now is      773.2 secs

     End of self-consistent calculation

     Number of k-points >= 100: set verbosity='high' to print the bands.

     highest occupied level (ev):    -4.6858

!    total energy              =    -278.69751857 Ry
     estimated scf accuracy    <          7.2E-10 Ry

     The total energy is the sum of the following terms:
     one-electron contribution =    -259.82515751 Ry
     hartree contribution      =     148.90990470 Ry
     xc contribution           =     -70.34966552 Ry
     ewald contribution        =     -97.43260025 Ry

     convergence has been achieved in   7 iterations

     Forces acting on atoms (cartesian axes, Ry/au):

     atom    1 type  2   force =     0.00000000    0.00054677    0.00039897
     atom    2 type  2   force =     0.00000000   -0.00054669    0.00039894
     atom    3 type  2   force =     0.00000000    0.00054672    0.00039895
     atom    4 type  2   force =     0.00000000   -0.00054674    0.00039895
     atom    5 type  2   force =     0.00000000    0.00077175    0.00352438
     atom    6 type  2   force =     0.00000000   -0.00077176    0.00352436
     atom    7 type  2   force =     0.00000000    0.00077173    0.00352435
     atom    8 type  2   force =     0.00000000   -0.00077177    0.00352439
     atom    9 type  1   force =     0.00000000    0.00048596    0.00012327
     atom   10 type  1   force =     0.00000000   -0.00048596    0.00012335
     atom   11 type  1   force =     0.00000000    0.00048596    0.00012333
     atom   12 type  1   force =     0.00000000   -0.00048596    0.00012329
     atom   13 type  1   force =     0.00000000    0.00189061   -0.00053553
     atom   14 type  1   force =     0.00000000   -0.00189061   -0.00053553
     atom   15 type  1   force =     0.00000000    0.00189060   -0.00053553
     atom   16 type  1   force =     0.00000000   -0.00189061   -0.00053553
     atom   17 type  1   force =     0.00076367   -0.00135271   -0.00175555
     atom   18 type  1   force =    -0.00076365    0.00135270   -0.00175556
     atom   19 type  1   force =     0.00076365    0.00135270   -0.00175556
     atom   20 type  1   force =    -0.00076367   -0.00135271   -0.00175555
     atom   21 type  1   force =     0.00076366   -0.00135270   -0.00175555
     atom   22 type  1   force =    -0.00076366    0.00135271   -0.00175555
     atom   23 type  1   force =     0.00076366    0.00135271   -0.00175555
     atom   24 type  1   force =    -0.00076366   -0.00135270   -0.00175555

     Total force =     0.010692     Total SCF correction =     0.000036


     Computing stress (Cartesian axis) and pressure

          total   stress  (Ry/bohr**3)                   (kbar)     P=      -15.12
  -0.00010802   0.00000000   0.00000000          -15.89        0.00        0.00
   0.00000000  -0.00010064   0.00000000            0.00      -14.81        0.00
   0.00000000   0.00000000  -0.00009972            0.00        0.00      -14.67

     Energy error            =      4.5E-04 Ry
     Gradient error          =      3.5E-03 Ry/Bohr

     number of scf cycles    =   6
     number of bfgs steps    =   5

     energy             old  =    -278.6970664869 Ry
     energy             new  =    -278.6975185698 Ry

     CASE: energy            _new < energy            _old

     new trust radius        =       0.0048236026 bohr
     new conv_thr            =       0.0000000035 Ry


ATOMIC_POSITIONS (crystal)
O                0.0000000000        0.6605035990        0.0624227277
O                0.0000000000        0.3394963180        0.5624226805
O                0.5000000000        0.1605036661        0.0624226873
O                0.5000000000        0.8394963823        0.5624227188
O                0.5000000000        0.8297439586        0.9365395626
O                0.5000000000        0.1702560722        0.4365395727
O                0.0000000000        0.3297439492        0.9365395784
O                0.0000000000        0.6702560595        0.4365395556
H                0.0000000000        0.6595551247        0.1891240380
H                0.0000000000        0.3404448080        0.6891239862
H                0.5000000000        0.1595551844        0.1891239951
H                0.5000000000        0.8404448646        0.6891240270
H                0.0000000000        0.5462162948        0.0258007263
H                0.0000000000        0.4537836226        0.5258006730
H                0.5000000000        0.0462163607        0.0258006855
H                0.5000000000        0.9537836860        0.5258007121
H                0.6647024465        0.7719882878        0.9820565114
H                0.3352975468        0.2280117353        0.4820565247
H                0.6647024532        0.2280117353        0.4820565247
H                0.3352975535        0.7719882878        0.9820565114
H                0.1647024513        0.2719882782        0.9820565214
H                0.8352975516        0.7280117233        0.4820565120
H                0.1647024484        0.7280117233        0.4820565120
H                0.8352975487        0.2719882782        0.9820565214



     Writing config-only to output data dir ./iceIh_vdw/iceIh_vdw.save/ :
     XML data file
     NEW-OLD atomic charge density approx. for the potential

     negative rho (up, down):  8.144E-07 0.000E+00

     total cpu time spent up to now is      785.3 secs

     per-process dynamical memory:    74.2 Mb

     Self-consistent Calculation

     iteration #  1     ecut=    90.00 Ry     beta= 0.70
     Davidson diagonalization with overlap
     ethr =  1.00E-06,  avg # of iterations =  3.0

     Threshold (ethr) on eigenvalues was too large:
     Diagonalizing with lowered threshold

     Davidson diagonalization with overlap
     ethr =  2.24E-08,  avg # of iterations =  3.0

     negative rho (up, down):  8.176E-07 0.000E+00

     total cpu time spent up to now is      808.7 secs

     total energy              =    -278.69764785 Ry
     estimated scf accuracy    <       0.00001849 Ry

     iteration #  2     ecut=    90.00 Ry     beta= 0.70
     Davidson diagonalization with overlap
     ethr =  2.89E-08,  avg # of iterations =  2.0

     negative rho (up, down):  8.159E-07 0.000E+00

     total cpu time spent up to now is      819.2 secs

     total energy              =    -278.69765094 Ry
     estimated scf accuracy    <       0.00000176 Ry

     iteration #  3     ecut=    90.00 Ry     beta= 0.70
     Davidson diagonalization with overlap
     ethr =  2.75E-09,  avg # of iterations =  2.4

     negative rho (up, down):  8.160E-07 0.000E+00

     total cpu time spent up to now is      830.8 secs

     total energy              =    -278.69765146 Ry
     estimated scf accuracy    <       0.00000023 Ry

     iteration #  4     ecut=    90.00 Ry     beta= 0.70
     Davidson diagonalization with overlap
     ethr =  3.64E-10,  avg # of iterations =  2.4

     negative rho (up, down):  8.161E-07 0.000E+00

     total cpu time spent up to now is      840.5 secs

     total energy              =    -278.69765149 Ry
     estimated scf accuracy    <       0.00000001 Ry

     iteration #  5     ecut=    90.00 Ry     beta= 0.70
     Davidson diagonalization with overlap
     ethr =  2.14E-11,  avg # of iterations =  3.1

     negative rho (up, down):  8.159E-07 0.000E+00

     total cpu time spent up to now is      853.6 secs

     total energy              =    -278.69765150 Ry
     estimated scf accuracy    <          7.4E-09 Ry

     iteration #  6     ecut=    90.00 Ry     beta= 0.70
     Davidson diagonalization with overlap
     ethr =  1.15E-11,  avg # of iterations =  2.0

     negative rho (up, down):  8.158E-07 0.000E+00

     total cpu time spent up to now is      863.7 secs

     End of self-consistent calculation

     Number of k-points >= 100: set verbosity='high' to print the bands.

     highest occupied level (ev):    -4.6884

!    total energy              =    -278.69765150 Ry
     estimated scf accuracy    <          4.7E-10 Ry

     The total energy is the sum of the following terms:
     one-electron contribution =    -259.86888720 Ry
     hartree contribution      =     148.93111203 Ry
     xc contribution           =     -70.35366630 Ry
     ewald contribution        =     -97.40621002 Ry

     convergence has been achieved in   6 iterations

     Forces acting on atoms (cartesian axes, Ry/au):

     atom    1 type  2   force =     0.00000000    0.00053124   -0.00143439
     atom    2 type  2   force =     0.00000000   -0.00053116   -0.00143443
     atom    3 type  2   force =     0.00000000    0.00053119   -0.00143441
     atom    4 type  2   force =     0.00000000   -0.00053121   -0.00143442
     atom    5 type  2   force =     0.00000000    0.00122391    0.00263248
     atom    6 type  2   force =     0.00000000   -0.00122392    0.00263246
     atom    7 type  2   force =     0.00000000    0.00122390    0.00263245
     atom    8 type  2   force =     0.00000000   -0.00122393    0.00263249
     atom    9 type  1   force =     0.00000000    0.00031938    0.00159806
     atom   10 type  1   force =     0.00000000   -0.00031937    0.00159813
     atom   11 type  1   force =     0.00000000    0.00031938    0.00159810
     atom   12 type  1   force =     0.00000000   -0.00031938    0.00159809
     atom   13 type  1   force =     0.00000000    0.00186392   -0.00022781
     atom   14 type  1   force =     0.00000000   -0.00186394   -0.00022779
     atom   15 type  1   force =     0.00000000    0.00186393   -0.00022780
     atom   16 type  1   force =     0.00000000   -0.00186393   -0.00022780
     atom   17 type  1   force =     0.00061598   -0.00150832   -0.00128417
     atom   18 type  1   force =    -0.00061597    0.00150831   -0.00128418
     atom   19 type  1   force =     0.00061597    0.00150831   -0.00128418
     atom   20 type  1   force =    -0.00061598   -0.00150832   -0.00128417
     atom   21 type  1   force =     0.00061597   -0.00150831   -0.00128418
     atom   22 type  1   force =    -0.00061597    0.00150832   -0.00128418
     atom   23 type  1   force =     0.00061597    0.00150832   -0.00128418
     atom   24 type  1   force =    -0.00061597   -0.00150831   -0.00128418

     Total force =     0.010111     Total SCF correction =     0.000045


     Computing stress (Cartesian axis) and pressure

          total   stress  (Ry/bohr**3)                   (kbar)     P=      -14.82
  -0.00010817   0.00000000   0.00000000          -15.91        0.00        0.00
   0.00000000  -0.00010008   0.00000000            0.00      -14.72        0.00
   0.00000000   0.00000000  -0.00009400            0.00        0.00      -13.83

     Energy error            =      1.3E-04 Ry
     Gradient error          =      2.6E-03 Ry/Bohr

     number of scf cycles    =   7
     number of bfgs steps    =   6

     energy             old  =    -278.6975185698 Ry
     energy             new  =    -278.6976514989 Ry

     CASE: energy            _new < energy            _old

     new trust radius        =       0.0053059628 bohr
     new conv_thr            =       0.0000000013 Ry


ATOMIC_POSITIONS (crystal)
O                0.0000000000        0.6606293165        0.0624616684
O                0.0000000000        0.3393706022        0.5624616273
O                0.5000000000        0.1606293822        0.0624616322
O                0.5000000000        0.8393706653        0.5624616614
O                0.5000000000        0.8298628246        0.9368760057
O                0.5000000000        0.1701372045        0.4368760124
O                0.0000000000        0.3298628146        0.9368760171
O                0.0000000000        0.6701371914        0.4368759998
H                0.0000000000        0.6595805946        0.1891253192
H                0.0000000000        0.3404193381        0.6891252686
H                0.5000000000        0.1595806544        0.1891252777
H                0.5000000000        0.8404193948        0.6891253079
H                0.0000000000        0.5463697780        0.0257606270
H                0.0000000000        0.4536301454        0.5257605720
H                0.5000000000        0.0463698401        0.0257605852
H                0.5000000000        0.9536302051        0.5257606122
H                0.6647916997        0.7718270246        0.9818882284
H                0.3352082957        0.2281729975        0.4818882408
H                0.6647917043        0.2281729975        0.4818882408
H                0.3352083003        0.7718270246        0.9818882284
H                0.1647917035        0.2718270158        0.9818882381
H                0.8352082994        0.7281729862        0.4818882285
H                0.1647917006        0.7281729862        0.4818882285
H                0.8352082965        0.2718270158        0.9818882381



     Writing config-only to output data dir ./iceIh_vdw/iceIh_vdw.save/ :
     XML data file
     NEW-OLD atomic charge density approx. for the potential

     negative rho (up, down):  8.189E-07 0.000E+00

     total cpu time spent up to now is      875.8 secs

     per-process dynamical memory:    74.1 Mb

     Self-consistent Calculation

     iteration #  1     ecut=    90.00 Ry     beta= 0.70
     Davidson diagonalization with overlap
     ethr =  1.00E-06,  avg # of iterations =  3.0

     Threshold (ethr) on eigenvalues was too large:
     Diagonalizing with lowered threshold

     Davidson diagonalization with overlap
     ethr =  2.43E-08,  avg # of iterations =  3.0

     negative rho (up, down):  8.030E-07 0.000E+00

     total cpu time spent up to now is      899.2 secs

     total energy              =    -278.69777719 Ry
     estimated scf accuracy    <       0.00001935 Ry

     iteration #  2     ecut=    90.00 Ry     beta= 0.70
     Davidson diagonalization with overlap
     ethr =  3.02E-08,  avg # of iterations =  2.0

     negative rho (up, down):  7.979E-07 0.000E+00

     total cpu time spent up to now is      909.0 secs

     total energy              =    -278.69777999 Ry
     estimated scf accuracy    <       0.00000127 Ry

     iteration #  3     ecut=    90.00 Ry     beta= 0.70
     Davidson diagonalization with overlap
     ethr =  1.99E-09,  avg # of iterations =  3.0

     negative rho (up, down):  7.969E-07 0.000E+00

     total cpu time spent up to now is      921.2 secs

     total energy              =    -278.69778030 Ry
     estimated scf accuracy    <       0.00000049 Ry

     iteration #  4     ecut=    90.00 Ry     beta= 0.70
     Davidson diagonalization with overlap
     ethr =  7.68E-10,  avg # of iterations =  3.0

     negative rho (up, down):  7.962E-07 0.000E+00

     total cpu time spent up to now is      931.9 secs

     total energy              =    -278.69778041 Ry
     estimated scf accuracy    <       0.00000001 Ry

     iteration #  5     ecut=    90.00 Ry     beta= 0.70
     Davidson diagonalization with overlap
     ethr =  2.12E-11,  avg # of iterations =  4.0

     negative rho (up, down):  7.962E-07 0.000E+00

     total cpu time spent up to now is      945.7 secs

     total energy              =    -278.69778041 Ry
     estimated scf accuracy    <          7.9E-09 Ry

     iteration #  6     ecut=    90.00 Ry     beta= 0.70
     Davidson diagonalization with overlap
     ethr =  1.23E-11,  avg # of iterations =  2.0

     negative rho (up, down):  7.962E-07 0.000E+00

     total cpu time spent up to now is      955.5 secs

     End of self-consistent calculation

     Number of k-points >= 100: set verbosity='high' to print the bands.

     highest occupied level (ev):    -4.6905

!    total energy              =    -278.69778041 Ry
     estimated scf accuracy    <          4.2E-10 Ry

     The total energy is the sum of the following terms:
     one-electron contribution =    -259.87931569 Ry
     hartree contribution      =     148.93673524 Ry
     xc contribution           =     -70.35439931 Ry
     ewald contribution        =     -97.40080065 Ry

     convergence has been achieved in   6 iterations

     Forces acting on atoms (cartesian axes, Ry/au):

     atom    1 type  2   force =     0.00000000    0.00048583   -0.00198597
     atom    2 type  2   force =     0.00000000   -0.00048568   -0.00198611
     atom    3 type  2   force =     0.00000000    0.00048574   -0.00198604
     atom    4 type  2   force =     0.00000000   -0.00048577   -0.00198604
     atom    5 type  2   force =     0.00000000    0.00110883    0.00208816
     atom    6 type  2   force =     0.00000000   -0.00110883    0.00208814
     atom    7 type  2   force =     0.00000000    0.00110881    0.00208814
     atom    8 type  2   force =     0.00000000   -0.00110884    0.00208816
     atom    9 type  1   force =     0.00000000    0.00033221    0.00203802
     atom   10 type  1   force =     0.00000000   -0.00033219    0.00203815
     atom   11 type  1   force =     0.00000000    0.00033220    0.00203810
     atom   12 type  1   force =     0.00000000   -0.00033221    0.00203808
     atom   13 type  1   force =     0.00000000    0.00167679   -0.00013885
     atom   14 type  1   force =     0.00000000   -0.00167689   -0.00013880
     atom   15 type  1   force =     0.00000000    0.00167685   -0.00013882
     atom   16 type  1   force =     0.00000000   -0.00167683   -0.00013884
     atom   17 type  1   force =     0.00036118   -0.00136962   -0.00100068
     atom   18 type  1   force =    -0.00036117    0.00136961   -0.00100069
     atom   19 type  1   force =     0.00036117    0.00136961   -0.00100069
     atom   20 type  1   force =    -0.00036118   -0.00136962   -0.00100068
     atom   21 type  1   force =     0.00036117   -0.00136961   -0.00100069
     atom   22 type  1   force =    -0.00036118    0.00136962   -0.00100068
     atom   23 type  1   force =     0.00036118    0.00136962   -0.00100068
     atom   24 type  1   force =    -0.00036117   -0.00136961   -0.00100069

     Total force =     0.009567     Total SCF correction =     0.000040


     Computing stress (Cartesian axis) and pressure

          total   stress  (Ry/bohr**3)                   (kbar)     P=      -14.78
  -0.00010911   0.00000000   0.00000000          -16.05        0.00        0.00
   0.00000000  -0.00009973   0.00000000            0.00      -14.67        0.00
   0.00000000   0.00000000  -0.00009260            0.00        0.00      -13.62

     Energy error            =      1.3E-04 Ry
     Gradient error          =      2.1E-03 Ry/Bohr

     number of scf cycles    =   8
     number of bfgs steps    =   7

     energy             old  =    -278.6976514989 Ry
     energy             new  =    -278.6977804106 Ry

     CASE: energy            _new < energy            _old

     new trust radius        =       0.0079589443 bohr
     new conv_thr            =       0.0000000013 Ry


ATOMIC_POSITIONS (crystal)
O                0.0000000000        0.6608384779        0.0624789053
O                0.0000000000        0.3391614501        0.5624788637
O                0.5000000000        0.1608385376        0.0624788697
O                0.5000000000        0.8391615073        0.5624788972
O                0.5000000000        0.8300528565        0.9373757984
O                0.5000000000        0.1699471707        0.4373758004
O                0.0000000000        0.3300528448        0.9373758036
O                0.0000000000        0.6699471562        0.4373757939
H                0.0000000000        0.6596168684        0.1891535851
H                0.0000000000        0.3403830653        0.6891535428
H                0.5000000000        0.1596169276        0.1891535496
H                0.5000000000        0.8403831213        0.6891535763
H                0.0000000000        0.5466113668        0.0257130048
H                0.0000000000        0.4533885588        0.5257129507
H                0.5000000000        0.0466114273        0.0257129637
H                0.5000000000        0.9533886169        0.5257129902
H                0.6648714203        0.7715696399        0.9816393916
H                0.3351285780        0.2284303802        0.4816394023
H                0.6648714220        0.2284303802        0.4816394023
H                0.3351285797        0.7715696399        0.9816393916
H                0.1648714224        0.2715696326        0.9816394004
H                0.8351285798        0.7284303705        0.4816393910
H                0.1648714202        0.7284303705        0.4816393910
H                0.8351285776        0.2715696326        0.9816394004



     Writing config-only to output data dir ./iceIh_vdw/iceIh_vdw.save/ :
     XML data file
     NEW-OLD atomic charge density approx. for the potential

     negative rho (up, down):  8.015E-07 0.000E+00

     total cpu time spent up to now is      967.7 secs

     per-process dynamical memory:    74.1 Mb

     Self-consistent Calculation

     iteration #  1     ecut=    90.00 Ry     beta= 0.70
     Davidson diagonalization with overlap
     ethr =  1.00E-06,  avg # of iterations =  3.0

     Threshold (ethr) on eigenvalues was too large:
     Diagonalizing with lowered threshold

     Davidson diagonalization with overlap
     ethr =  6.09E-08,  avg # of iterations =  2.0

     negative rho (up, down):  7.537E-07 0.000E+00

     total cpu time spent up to now is      990.6 secs

     total energy              =    -278.69793155 Ry
     estimated scf accuracy    <       0.00004381 Ry

     iteration #  2     ecut=    90.00 Ry     beta= 0.70
     Davidson diagonalization with overlap
     ethr =  6.84E-08,  avg # of iterations =  2.0

     negative rho (up, down):  7.410E-07 0.000E+00

     total cpu time spent up to now is     1000.6 secs

     total energy              =    -278.69793759 Ry
     estimated scf accuracy    <       0.00000396 Ry

     iteration #  3     ecut=    90.00 Ry     beta= 0.70
     Davidson diagonalization with overlap
     ethr =  6.19E-09,  avg # of iterations =  3.0

     negative rho (up, down):  7.377E-07 0.000E+00

     total cpu time spent up to now is     1013.1 secs

     total energy              =    -278.69793860 Ry
     estimated scf accuracy    <       0.00000149 Ry

     iteration #  4     ecut=    90.00 Ry     beta= 0.70
     Davidson diagonalization with overlap
     ethr =  2.33E-09,  avg # of iterations =  2.4

     negative rho (up, down):  7.359E-07 0.000E+00

     total cpu time spent up to now is     1023.5 secs

     total energy              =    -278.69793887 Ry
     estimated scf accuracy    <       0.00000004 Ry

     iteration #  5     ecut=    90.00 Ry     beta= 0.70
     Davidson diagonalization with overlap
     ethr =  5.88E-11,  avg # of iterations =  5.9

     negative rho (up, down):  7.358E-07 0.000E+00

     total cpu time spent up to now is     1041.0 secs

     total energy              =    -278.69793888 Ry
     estimated scf accuracy    <       0.00000009 Ry

     iteration #  6     ecut=    90.00 Ry     beta= 0.70
     Davidson diagonalization with overlap
     ethr =  5.88E-11,  avg # of iterations =  3.0

     negative rho (up, down):  7.357E-07 0.000E+00

     total cpu time spent up to now is     1053.8 secs

     End of self-consistent calculation

     Number of k-points >= 100: set verbosity='high' to print the bands.

     highest occupied level (ev):    -4.6930

!    total energy              =    -278.69793890 Ry
     estimated scf accuracy    <          2.2E-10 Ry

     The total energy is the sum of the following terms:
     one-electron contribution =    -259.88138584 Ry
     hartree contribution      =     148.93854599 Ry
     xc contribution           =     -70.35416106 Ry
     ewald contribution        =     -97.40093798 Ry

     convergence has been achieved in   6 iterations

     Forces acting on atoms (cartesian axes, Ry/au):

     atom    1 type  2   force =     0.00000000    0.00040053   -0.00186619
     atom    2 type  2   force =     0.00000000   -0.00040049   -0.00186620
     atom    3 type  2   force =     0.00000000    0.00040051   -0.00186618
     atom    4 type  2   force =     0.00000000   -0.00040051   -0.00186620
     atom    5 type  2   force =     0.00000000    0.00086079    0.00131701
     atom    6 type  2   force =     0.00000000   -0.00086080    0.00131699
     atom    7 type  2   force =     0.00000000    0.00086079    0.00131699
     atom    8 type  2   force =     0.00000000   -0.00086080    0.00131701
     atom    9 type  1   force =     0.00000000    0.00043355    0.00188468
[...]
O                0.0000000000        0.3388237599        0.5624797986
O                0.5000000000        0.1611762285        0.0624798005
O                0.5000000000        0.8388238145        0.5624798222
O                0.5000000000        0.8303534210        0.9381185926
O                0.5000000000        0.1696466031        0.4381185873
O                0.0000000000        0.3303534077        0.9381185877
O                0.0000000000        0.6696465873        0.4381185909
H                0.0000000000        0.6596908852        0.1892150309
H                0.0000000000        0.3403090519        0.6892149886
H                0.5000000000        0.1596909420        0.1892149967
H                0.5000000000        0.8403091056        0.6892150205
H                0.0000000000        0.5469967051        0.0256443021
H                0.0000000000        0.4530032340        0.5256442486
H                0.5000000000        0.0469967569        0.0256442620
H                0.5000000000        0.9530032838        0.5256442873
H                0.6649478398        0.7711561042        0.9812711622
H                0.3350521610        0.2288439128        0.4812711698
H                0.6649478390        0.2288439128        0.4812711698
H                0.3350521602        0.7711561042        0.9812711622
H                0.1649478411        0.2711560988        0.9812711695
H                0.8350521619        0.7288439050        0.4812711603
H                0.1649478381        0.7288439050        0.4812711603
H                0.8350521589        0.2711560988        0.9812711695



     Writing config-only to output data dir ./iceIh_vdw/iceIh_vdw.save/ :
     XML data file
     NEW-OLD atomic charge density approx. for the potential

     negative rho (up, down):  7.596E-07 0.000E+00

     total cpu time spent up to now is     1065.9 secs

     per-process dynamical memory:    74.1 Mb

     Self-consistent Calculation

     iteration #  1     ecut=    90.00 Ry     beta= 0.70
     Davidson diagonalization with overlap
     ethr =  1.00E-06,  avg # of iterations =  4.0

     negative rho (up, down):  6.932E-07 0.000E+00

     total cpu time spent up to now is     1081.2 secs

     total energy              =    -278.69806967 Ry
     estimated scf accuracy    <       0.00009309 Ry

     iteration #  2     ecut=    90.00 Ry     beta= 0.70
     Davidson diagonalization with overlap
     ethr =  1.45E-07,  avg # of iterations =  2.0

     negative rho (up, down):  7.139E-07 0.000E+00

     total cpu time spent up to now is     1091.6 secs

     total energy              =    -278.69808325 Ry
     estimated scf accuracy    <       0.00001096 Ry

     iteration #  3     ecut=    90.00 Ry     beta= 0.70
     Davidson diagonalization with overlap
     ethr =  1.71E-08,  avg # of iterations =  3.0

     negative rho (up, down):  7.177E-07 0.000E+00

     total cpu time spent up to now is     1103.9 secs

     total energy              =    -278.69808580 Ry
     estimated scf accuracy    <       0.00000436 Ry

     iteration #  4     ecut=    90.00 Ry     beta= 0.70
     Davidson diagonalization with overlap
     ethr =  6.81E-09,  avg # of iterations =  2.1

     negative rho (up, down):  7.138E-07 0.000E+00

     total cpu time spent up to now is     1114.1 secs

     total energy              =    -278.69808658 Ry
     estimated scf accuracy    <       0.00000010 Ry

     iteration #  5     ecut=    90.00 Ry     beta= 0.70
     Davidson diagonalization with overlap
     ethr =  1.61E-10,  avg # of iterations =  6.0

     negative rho (up, down):  7.149E-07 0.000E+00

     total cpu time spent up to now is     1131.7 secs

     total energy              =    -278.69808662 Ry
     estimated scf accuracy    <       0.00000028 Ry

     iteration #  6     ecut=    90.00 Ry     beta= 0.70
     Davidson diagonalization with overlap
     ethr =  1.61E-10,  avg # of iterations =  3.6

     negative rho (up, down):  7.143E-07 0.000E+00

     total cpu time spent up to now is     1145.5 secs

     total energy              =    -278.69808668 Ry
     estimated scf accuracy    <          4.0E-09 Ry

     iteration #  7     ecut=    90.00 Ry     beta= 0.70
     Davidson diagonalization with overlap
     ethr =  6.21E-12,  avg # of iterations =  3.0

     negative rho (up, down):  7.142E-07 0.000E+00

     total cpu time spent up to now is     1157.5 secs

     total energy              =    -278.69808668 Ry
     estimated scf accuracy    <          1.7E-09 Ry

     iteration #  8     ecut=    90.00 Ry     beta= 0.70
     Davidson diagonalization with overlap
     ethr =  2.63E-12,  avg # of iterations =  2.0

     negative rho (up, down):  7.142E-07 0.000E+00

     total cpu time spent up to now is     1166.3 secs

     End of self-consistent calculation

     Number of k-points >= 100: set verbosity='high' to print the bands.

     highest occupied level (ev):    -4.6966

!    total energy              =    -278.69808668 Ry
     estimated scf accuracy    <          6.0E-10 Ry

     The total energy is the sum of the following terms:
     one-electron contribution =    -259.86572464 Ry
     hartree contribution      =     148.93243597 Ry
     xc contribution           =     -70.35203715 Ry
     ewald contribution        =     -97.41276087 Ry

     convergence has been achieved in   8 iterations

     Forces acting on atoms (cartesian axes, Ry/au):

     atom    1 type  2   force =     0.00000000    0.00028931   -0.00108008
     atom    2 type  2   force =     0.00000000   -0.00028912   -0.00108034
     atom    3 type  2   force =     0.00000000    0.00028919   -0.00108024
     atom    4 type  2   force =     0.00000000   -0.00028923   -0.00108020
     atom    5 type  2   force =     0.00000000    0.00012857    0.00041296
     atom    6 type  2   force =     0.00000000   -0.00012857    0.00041296
     atom    7 type  2   force =     0.00000000    0.00012856    0.00041296
     atom    8 type  2   force =     0.00000000   -0.00012858    0.00041296
     atom    9 type  1   force =     0.00000000    0.00060794    0.00112143
     atom   10 type  1   force =     0.00000000   -0.00060790    0.00112162
     atom   11 type  1   force =     0.00000000    0.00060791    0.00112154
     atom   12 type  1   force =     0.00000000   -0.00060793    0.00112151
     atom   13 type  1   force =     0.00000000    0.00074188   -0.00012195
     atom   14 type  1   force =     0.00000000   -0.00074205   -0.00012184
     atom   15 type  1   force =     0.00000000    0.00074198   -0.00012188
     atom   16 type  1   force =     0.00000000   -0.00074195   -0.00012191
     atom   17 type  1   force =    -0.00019908   -0.00054279   -0.00016618
     atom   18 type  1   force =     0.00019907    0.00054278   -0.00016619
     atom   19 type  1   force =    -0.00019907    0.00054278   -0.00016619
     atom   20 type  1   force =     0.00019908   -0.00054279   -0.00016618
     atom   21 type  1   force =    -0.00019908   -0.00054278   -0.00016619
     atom   22 type  1   force =     0.00019907    0.00054279   -0.00016618
     atom   23 type  1   force =    -0.00019907    0.00054279   -0.00016618
     atom   24 type  1   force =     0.00019908   -0.00054278   -0.00016619

     Total force =     0.004173     Total SCF correction =     0.000033


     Computing stress (Cartesian axis) and pressure

          total   stress  (Ry/bohr**3)                   (kbar)     P=      -15.02
  -0.00011057   0.00000000   0.00000000          -16.27        0.00        0.00
   0.00000000  -0.00009823   0.00000000            0.00      -14.45        0.00
   0.00000000   0.00000000  -0.00009749            0.00        0.00      -14.34

     Energy error            =      1.5E-04 Ry
     Gradient error          =      1.1E-03 Ry/Bohr

     number of scf cycles    =  10
     number of bfgs steps    =   9

     energy             old  =    -278.6979388970 Ry
     energy             new  =    -278.6980866844 Ry

     CASE: energy            _new < energy            _old

     new trust radius        =       0.0081462796 bohr
     new conv_thr            =       0.0000000011 Ry


ATOMIC_POSITIONS (crystal)
O                0.0000000000        0.6614329901        0.0624656833
O                0.0000000000        0.3385669621        0.5624656374
O                0.5000000000        0.1614330340        0.0624656478
O                0.5000000000        0.8385670040        0.5624656706
O                0.5000000000        0.8305410106        0.9386330655
O                0.5000000000        0.1694590120        0.4386330553
O                0.0000000000        0.3305409950        0.9386330543
O                0.0000000000        0.6694589942        0.4386330651
H                0.0000000000        0.6597876630        0.1892775662
H                0.0000000000        0.3402122793        0.6892775442
H                0.5000000000        0.1597877160        0.1892775453
H                0.5000000000        0.8402123293        0.6892775634
H                0.0000000000        0.5472883249        0.0255872093
H                0.0000000000        0.4527116062        0.5255871660
H                0.5000000000        0.0472883815        0.0255871762
H                0.5000000000        0.9527116607        0.5255871978
H                0.6649488920        0.7708545918        0.9810182754
H                0.3350511088        0.2291454221        0.4810182802
H                0.6649488912        0.2291454221        0.4810182802
H                0.3350511080        0.7708545918        0.9810182754
H                0.1649488926        0.2708545884        0.9810182807
H                0.8350511090        0.7291454164        0.4810182728
H                0.1649488910        0.7291454164        0.4810182728
H                0.8350511074        0.2708545884        0.9810182807



     Writing config-only to output data dir ./iceIh_vdw/iceIh_vdw.save/ :
     XML data file
     NEW-OLD atomic charge density approx. for the potential

     negative rho (up, down):  7.463E-07 0.000E+00

     total cpu time spent up to now is     1178.4 secs

     per-process dynamical memory:    74.1 Mb

     Self-consistent Calculation

     iteration #  1     ecut=    90.00 Ry     beta= 0.70
     Davidson diagonalization with overlap
     ethr =  1.00E-06,  avg # of iterations =  3.0

     Threshold (ethr) on eigenvalues was too large:
     Diagonalizing with lowered threshold

     Davidson diagonalization with overlap
     ethr =  7.16E-08,  avg # of iterations =  2.0

     negative rho (up, down):  7.373E-07 0.000E+00

     total cpu time spent up to now is     1201.7 secs

     total energy              =    -278.69811343 Ry
     estimated scf accuracy    <       0.00005182 Ry

     iteration #  2     ecut=    90.00 Ry     beta= 0.70
     Davidson diagonalization with overlap
     ethr =  8.10E-08,  avg # of iterations =  2.0

     negative rho (up, down):  7.536E-07 0.000E+00

     total cpu time spent up to now is     1212.2 secs

     total energy              =    -278.69812080 Ry
     estimated scf accuracy    <       0.00000507 Ry

     iteration #  3     ecut=    90.00 Ry     beta= 0.70
     Davidson diagonalization with overlap
     ethr =  7.92E-09,  avg # of iterations =  3.0

     negative rho (up, down):  7.588E-07 0.000E+00

     total cpu time spent up to now is     1224.3 secs

     total energy              =    -278.69812212 Ry
     estimated scf accuracy    <       0.00000148 Ry

     iteration #  4     ecut=    90.00 Ry     beta= 0.70
     Davidson diagonalization with overlap
     ethr =  2.31E-09,  avg # of iterations =  2.1

     negative rho (up, down):  7.633E-07 0.000E+00

     total cpu time spent up to now is     1234.6 secs

     total energy              =    -278.69812237 Ry
     estimated scf accuracy    <       0.00000004 Ry

     iteration #  5     ecut=    90.00 Ry     beta= 0.70
     Davidson diagonalization with overlap
     ethr =  6.61E-11,  avg # of iterations =  5.4

     negative rho (up, down):  7.640E-07 0.000E+00

     total cpu time spent up to now is     1251.2 secs

     total energy              =    -278.69812237 Ry
     estimated scf accuracy    <       0.00000008 Ry

     iteration #  6     ecut=    90.00 Ry     beta= 0.70
     Davidson diagonalization with overlap
     ethr =  6.61E-11,  avg # of iterations =  3.0

     negative rho (up, down):  7.616E-07 0.000E+00

     total cpu time spent up to now is     1264.1 secs

     End of self-consistent calculation

     Number of k-points >= 100: set verbosity='high' to print the bands.

     highest occupied level (ev):    -4.6986

!    total energy              =    -278.69812240 Ry
     estimated scf accuracy    <          4.5E-10 Ry

     The total energy is the sum of the following terms:
     one-electron contribution =    -259.85570498 Ry
     hartree contribution      =     148.92820059 Ry
     xc contribution           =     -70.35063194 Ry
     ewald contribution        =     -97.41998607 Ry

     convergence has been achieved in   6 iterations

     Forces acting on atoms (cartesian axes, Ry/au):

     atom    1 type  2   force =     0.00000000    0.00026774   -0.00012771
     atom    2 type  2   force =     0.00000000   -0.00026789   -0.00012733
     atom    3 type  2   force =     0.00000000    0.00026779   -0.00012747
     atom    4 type  2   force =     0.00000000   -0.00026784   -0.00012756
     atom    5 type  2   force =     0.00000000   -0.00027006   -0.00031908
     atom    6 type  2   force =     0.00000000    0.00027015   -0.00031905
     atom    7 type  2   force =     0.00000000   -0.00027014   -0.00031906
     atom    8 type  2   force =     0.00000000    0.00027007   -0.00031907
     atom    9 type  1   force =     0.00000000    0.00068576    0.00015187
     atom   10 type  1   force =     0.00000000   -0.00068573    0.00015155
     atom   11 type  1   force =     0.00000000    0.00068574    0.00015167
     atom   12 type  1   force =     0.00000000   -0.00068575    0.00015174
     atom   13 type  1   force =     0.00000000    0.00031576   -0.00009081
     atom   14 type  1   force =     0.00000000   -0.00031548   -0.00009086
     atom   15 type  1   force =     0.00000000    0.00031559   -0.00009084
     atom   16 type  1   force =     0.00000000   -0.00031565   -0.00009083
     atom   17 type  1   force =    -0.00016576   -0.00021136    0.00019287
     atom   18 type  1   force =     0.00016577    0.00021133    0.00019284
     atom   19 type  1   force =    -0.00016577    0.00021133    0.00019284
     atom   20 type  1   force =     0.00016576   -0.00021136    0.00019287
     atom   21 type  1   force =    -0.00016577   -0.00021135    0.00019285
     atom   22 type  1   force =     0.00016576    0.00021135    0.00019287
     atom   23 type  1   force =    -0.00016576    0.00021135    0.00019287
     atom   24 type  1   force =     0.00016577   -0.00021135    0.00019285

     Total force =     0.002081     Total SCF correction =     0.000045


     Computing stress (Cartesian axis) and pressure

          total   stress  (Ry/bohr**3)                   (kbar)     P=      -15.16
  -0.00010974   0.00000000   0.00000000          -16.14        0.00        0.00
   0.00000000  -0.00009749  -0.00000000            0.00      -14.34       -0.00
   0.00000000  -0.00000000  -0.00010187            0.00       -0.00      -14.99

     Energy error            =      3.6E-05 Ry
     Gradient error          =      6.9E-04 Ry/Bohr

     bfgs converged in  11 scf cycles and  10 bfgs steps
     (criteria: energy <  1.0E-04 Ry, force <  1.0E-03 Ry/Bohr)

     End of BFGS Geometry Optimization

     Final energy             =    -278.6981224017 Ry

     File ./iceIh_vdw/iceIh_vdw.bfgs deleted, as requested
Begin final coordinates

ATOMIC_POSITIONS (crystal)
O                0.0000000000        0.6614329901        0.0624656833
O                0.0000000000        0.3385669621        0.5624656374
O                0.5000000000        0.1614330340        0.0624656478
O                0.5000000000        0.8385670040        0.5624656706
O                0.5000000000        0.8305410106        0.9386330655
O                0.5000000000        0.1694590120        0.4386330553
O                0.0000000000        0.3305409950        0.9386330543
O                0.0000000000        0.6694589942        0.4386330651
H                0.0000000000        0.6597876630        0.1892775662
H                0.0000000000        0.3402122793        0.6892775442
H                0.5000000000        0.1597877160        0.1892775453
H                0.5000000000        0.8402123293        0.6892775634
H                0.0000000000        0.5472883249        0.0255872093
H                0.0000000000        0.4527116062        0.5255871660
H                0.5000000000        0.0472883815        0.0255871762
H                0.5000000000        0.9527116607        0.5255871978
H                0.6649488920        0.7708545918        0.9810182754
H                0.3350511088        0.2291454221        0.4810182802
H                0.6649488912        0.2291454221        0.4810182802
H                0.3350511080        0.7708545918        0.9810182754
H                0.1649488926        0.2708545884        0.9810182807
H                0.8350511090        0.7291454164        0.4810182728
H                0.1649488910        0.7291454164        0.4810182728
H                0.8350511074        0.2708545884        0.9810182807
End final coordinates



     Writing all to output data dir ./iceIh_vdw/iceIh_vdw.save/ :
     XML data file, charge density, pseudopotentials, collected wavefunctions

     init_run     :      6.98s CPU      7.15s WALL (       1 calls)
     electrons    :   1119.48s CPU   1136.58s WALL (      11 calls)
     update_pot   :      0.80s CPU      0.92s WALL (      10 calls)
     forces       :      8.12s CPU      8.14s WALL (      11 calls)
     stress       :    120.28s CPU    120.44s WALL (      11 calls)

     Called by init_run:
     wfcinit      :      4.73s CPU      4.81s WALL (       1 calls)
     potinit      :      1.59s CPU      1.64s WALL (       1 calls)
     hinit0       :      0.56s CPU      0.57s WALL (       1 calls)

     Called by electrons:
     c_bands      :    998.95s CPU   1013.27s WALL (      90 calls)
     sum_band     :    113.06s CPU    114.03s WALL (      90 calls)
     v_of_rho     :      9.09s CPU      9.94s WALL (      97 calls)
     newd         :      0.25s CPU      0.29s WALL (      97 calls)
     mix_rho      :      0.22s CPU      0.22s WALL (      90 calls)
     vdW_kernel   :      1.51s CPU      1.52s WALL (       1 calls)

     Called by c_bands:
     init_us_2    :     16.14s CPU     16.68s WALL (   23345 calls)
     cegterg      :    956.89s CPU    964.69s WALL (   10350 calls)

     Called by *egterg:
     cdiaghg      :     71.89s CPU     72.18s WALL (   41243 calls)
     h_psi        :    712.18s CPU    719.14s WALL (   42968 calls)
     s_psi        :     31.73s CPU     31.90s WALL (   42968 calls)
     g_psi        :      2.83s CPU      2.84s WALL (   32503 calls)

     Called by h_psi:
     h_psi:calbec :     56.27s CPU     56.71s WALL (   42968 calls)
     vloc_psi     :    616.02s CPU    622.16s WALL (   42968 calls)
     add_vuspsi   :     33.50s CPU     33.75s WALL (   42968 calls)

     General routines
     calbec       :     74.07s CPU     74.65s WALL (   59643 calls)
     fft          :      4.36s CPU      4.44s WALL (    6503 calls)
     ffts         :      0.05s CPU      0.05s WALL (      90 calls)
     fftw         :    632.67s CPU    638.65s WALL ( 2506992 calls)

     Parallel routines

     PWSCF        :  21m 0.03s CPU  21m29.78s WALL


   This run was terminated on:   7:14:46   2Apr2026            

=------------------------------------------------------------------------------=
   JOB DONE.
=------------------------------------------------------------------------------=
