
     Program PWSCF v.7.3.1 starts on 26Mar2026 at 14:43:18 

     This program is part of the open-source Quantum ESPRESSO suite
     for quantum simulation of materials; please cite
         "P. Giannozzi et al., J. Phys.:Condens. Matter 21 395502 (2009);
         "P. Giannozzi et al., J. Phys.:Condens. Matter 29 465901 (2017);
         "P. Giannozzi et al., J. Chem. Phys. 152 154105 (2020);
          URL http://www.quantum-espresso.org", 
     in publications or presentations arising from this work. More details at
     http://www.quantum-espresso.org/quote

     Parallel version (MPI), running on   128 processors

     MPI processes distributed on     1 nodes
     237876 MiB available memory on the printing compute node when the environment starts

     Waiting for input...
     Reading input from standard input

     Current dimensions of program PWSCF are:
     Max number of different atomic species (ntypx) = 10
     Max number of k-points (npk) =  40000
     Max angular momentum in pseudopotentials (lmaxx) =  4

     IMPORTANT: XC functional enforced from input :
     Exchange-correlation= VDW-DF2
                           (   1   4  13   0   2   0   0)
     Any further DFT definition will be discarded
     Please, verify this is what you really want

     Found identity + ( -0.5000 -0.5000 -0.0000) symmetry
     This is a supercell, fractional translations are disabled

     K-points division:     npool     =       4
     R & G space division:  proc/nbgrp/npool/nimage =      32
     Subspace diagonalization in iterative solution of the eigenvalue problem:
     a serial algorithm will be used


     Parallelization info
     --------------------
     sticks:   dense  smooth     PW     G-vecs:    dense   smooth      PW
     Min          97      97     27                 5035     5035     735
     Max          98      98     29                 5040     5040     741
     Sum        3105    3105    867               161153   161153   23591

     Using Slab Decomposition



     bravais-lattice index     =            8
     lattice parameter (alat)  =       7.9120  a.u.
     unit-cell volume          =    1396.4312 (a.u.)^3
     number of atoms/cell      =           24
     number of atomic types    =            2
     number of electrons       =        64.00
     number of Kohn-Sham states=           32
     kinetic-energy cutoff     =      90.0000  Ry
     charge density cutoff     =     360.0000  Ry
     scf convergence threshold =      1.0E-07
     mixing beta               =       0.7000
     number of iterations used =            8  plain     mixing
     Exchange-correlation= VDW-DF2
                           (   1   4  13   0   2   0   0)

     celldm(1)=   7.912018  celldm(2)=   1.732119  celldm(3)=   1.627721
     celldm(4)=   0.000000  celldm(5)=   0.000000  celldm(6)=   0.000000

     crystal axes: (cart. coord. in units of alat)
               a(1) = (   1.000000   0.000000   0.000000 )  
               a(2) = (   0.000000   1.732119   0.000000 )  
               a(3) = (   0.000000   0.000000   1.627721 )  

     reciprocal axes: (cart. coord. in units 2 pi/alat)
               b(1) = (  1.000000  0.000000  0.000000 )  
               b(2) = (  0.000000  0.577328  0.000000 )  
               b(3) = (  0.000000  0.000000  0.614356 )  


     PseudoPot. # 1 for H  read from file:
     ./H.pbe-van_ak.UPF
     MD5 check sum: 077eb6d537518a38cb46c6de387227b7
     Pseudo is Ultrasoft, Zval =  1.0
     Generated by new atomic code, or converted to UPF format
     Using radial grid of  615 points,  1 beta functions with: 
                l(1) =   0
     Q(r) pseudized with  8 coefficients,  rinner =    0.800

     PseudoPot. # 2 for O  read from file:
     ./O.pbe-van_ak.UPF
     MD5 check sum: 78c19812648e8988a0fe644b0f25305e
     Pseudo is Ultrasoft, Zval =  6.0
     Generated by new atomic code, or converted to UPF format
     Using radial grid of  737 points,  4 beta functions with: 
                l(1) =   0
                l(2) =   0
                l(3) =   1
                l(4) =   1
     Q(r) pseudized with  8 coefficients,  rinner =    0.800   0.800   0.800


     atomic species   valence    mass     pseudopotential
     H                 1.00     1.00800     H ( 1.00)
     O                 6.00    16.00000     O ( 1.00)

      2 Sym. Ops. (no inversion) found



   Cartesian axes

     site n.     atom                  positions (alat units)
         1        O      tau(   1) = (   0.0000000   1.1505053   0.0983911  )
         2        O      tau(   2) = (   0.0000000   0.5816137   0.9122516  )
         3        O      tau(   3) = (   0.5000000   0.2844458   0.0983911  )
         4        O      tau(   4) = (   0.5000000   1.4476733   0.9122516  )
         5        O      tau(   5) = (   0.5000000   1.4413210   1.5245781  )
         6        O      tau(   6) = (   0.5000000   0.2907980   0.7107175  )
         7        O      tau(   7) = (   0.0000000   0.5752615   1.5245780  )
         8        O      tau(   8) = (   0.0000000   1.1568575   0.7107175  )
         9        H      tau(   9) = (   0.0000000   1.1476935   0.3199225  )
        10        H      tau(  10) = (   0.0000000   0.5844255   1.1337830  )
        11        H      tau(  11) = (   0.5000000   0.2816340   0.3199225  )
        12        H      tau(  12) = (   0.5000000   1.4504851   1.1337830  )
        13        H      tau(  13) = (   0.0000000   0.9389577   0.0320281  )
        14        H      tau(  14) = (   0.0000000   0.7931613   0.8458886  )
        15        H      tau(  15) = (   0.5000000   0.0728982   0.0320281  )
        16        H      tau(  16) = (   0.5000000   1.6592209   0.8458886  )
        17        H      tau(  17) = (   0.6777387   1.3318248   1.5989889  )
        18        H      tau(  18) = (   0.3222613   0.4002942   0.7851284  )
        19        H      tau(  19) = (   0.6777387   0.4002942   0.7851284  )
        20        H      tau(  20) = (   0.3222613   1.3318248   1.5989889  )
        21        H      tau(  21) = (   0.1777387   0.4657653   1.5989889  )
        22        H      tau(  22) = (   0.8222613   1.2663538   0.7851284  )
        23        H      tau(  23) = (   0.1777387   1.2663538   0.7851284  )
        24        H      tau(  24) = (   0.8222613   0.4657653   1.5989889  )

     number of k points=   460

     Number of k-points >= 100: set verbosity='high' to print them.

     Dense  grid:   161153 G-vectors     FFT dimensions: (  48,  90,  80)

     Estimated max dynamical RAM per process >      42.47 MB

     Estimated total dynamical RAM >       5.19 GB

     Initial potential from superposition of free atoms

     starting charge      63.9998, renormalised to      64.0000


     %%%%%%%%%%%%%%%%%%%%%%%%%%%%%%%%%%%%%%%%%%%%%%%%%%%%%%%%%%%%%%%%%%%%%%%%
     %                                                                      %
     % You are using vdW-DF, which was implemented by the Thonhauser group. %
     % Please cite the following two papers that made this development      %
     % possible and the two reviews that describe the various versions:     %
     %                                                                      %
     %   T. Thonhauser et al., PRL 115, 136402 (2015).                      %
     %   T. Thonhauser et al., PRB 76, 125112 (2007).                       %
     %   K. Berland et al., Rep. Prog. Phys. 78, 066501 (2015).             %
     %   D.C. Langreth et al., J. Phys.: Condens. Matter 21, 084203 (2009). %
     %                                                                      %
     % If you are calculating stress with vdW-DF, please also cite:         %
     %                                                                      %
     %   R. Sabatini et al., J. Phys.: Condens. Matter 24, 424209 (2012).   %
     %                                                                      %
     %%%%%%%%%%%%%%%%%%%%%%%%%%%%%%%%%%%%%%%%%%%%%%%%%%%%%%%%%%%%%%%%%%%%%%%%

     %%%%%%%%%%%%%%%%%%%%%%%%%%%%%%%%%%%%%%%%%%%%%%%%%%%%%%%%%%%%%%%%%%%%%%%%
     %                                                                      %
     %  vdW-DF NEWS:                                                        %
     %                                                                      %
     %  * vdW-DF3 is now available. DOI: 10.1021/acs.jctc.0c00471           %
     %    use with input_dft = 'vdW-DF3-opt1' or 'vdW-DF3-opt2'             %
     %                                                                      %
     %  * Unscreened and range-separated hybrid vdW-DF-cx functionals       %
     %    DOI: 10.1063/1.4986522 and 10.1088/1361-648X/ac2ad2               %
     %    use with input_dft = 'vdW-DF-cx0'    and 'vdW-DF-ahcx'            %
     %  * Unscreened and range-separated hybrid vdW-DF2-b86r functionals    %
     %    DOI: 10.1063/1.4986522 and DOI: 10.1103/PhysRevX.12.041003        %
     %    use with input_dft = 'vdW-DF2-br0' and 'vdW-DF2-ahbr'             %
     %                                                                      %
     %%%%%%%%%%%%%%%%%%%%%%%%%%%%%%%%%%%%%%%%%%%%%%%%%%%%%%%%%%%%%%%%%%%%%%%%


     Starting wfcs are   48 randomized atomic wfcs

     total cpu time spent up to now is        6.0 secs

     per-process dynamical memory:    50.0 Mb

     Self-consistent Calculation

     iteration #  1     ecut=    90.00 Ry     beta= 0.70
     Davidson diagonalization with overlap
     ethr =  1.00E-02,  avg # of iterations =  2.0

     total cpu time spent up to now is       13.7 secs

     total energy              =    -277.00515045 Ry
     estimated scf accuracy    <       3.60245055 Ry

     iteration #  2     ecut=    90.00 Ry     beta= 0.70
     Davidson diagonalization with overlap
     ethr =  5.63E-03,  avg # of iterations =  3.0

     total cpu time spent up to now is       24.1 secs

     total energy              =    -278.18920960 Ry
     estimated scf accuracy    <       1.85067651 Ry

     iteration #  3     ecut=    90.00 Ry     beta= 0.70
     Davidson diagonalization with overlap
     ethr =  2.89E-03,  avg # of iterations =  2.0

     total cpu time spent up to now is       32.0 secs

     total energy              =    -278.44985542 Ry
     estimated scf accuracy    <       0.06461274 Ry

     iteration #  4     ecut=    90.00 Ry     beta= 0.70
     Davidson diagonalization with overlap
     ethr =  1.01E-04,  avg # of iterations =  4.0

     total cpu time spent up to now is       43.7 secs

     total energy              =    -278.49846091 Ry
     estimated scf accuracy    <       0.08256049 Ry

     iteration #  5     ecut=    90.00 Ry     beta= 0.70
     Davidson diagonalization with overlap
     ethr =  1.01E-04,  avg # of iterations =  2.0

     total cpu time spent up to now is       50.8 secs

     total energy              =    -278.50235831 Ry
     estimated scf accuracy    <       0.01105554 Ry

     iteration #  6     ecut=    90.00 Ry     beta= 0.70
     Davidson diagonalization with overlap
     ethr =  1.73E-05,  avg # of iterations =  2.0

     total cpu time spent up to now is       58.1 secs

     total energy              =    -278.50208616 Ry
     estimated scf accuracy    <       0.00288898 Ry

     iteration #  7     ecut=    90.00 Ry     beta= 0.70
     Davidson diagonalization with overlap
     ethr =  4.51E-06,  avg # of iterations =  2.9

     total cpu time spent up to now is       67.2 secs

     total energy              =    -278.50356480 Ry
     estimated scf accuracy    <       0.00039197 Ry

     iteration #  8     ecut=    90.00 Ry     beta= 0.70
     Davidson diagonalization with overlap
     ethr =  6.12E-07,  avg # of iterations =  2.0

     total cpu time spent up to now is       73.9 secs

     total energy              =    -278.50339772 Ry
     estimated scf accuracy    <       0.00049010 Ry

     iteration #  9     ecut=    90.00 Ry     beta= 0.70
     Davidson diagonalization with overlap
     ethr =  6.12E-07,  avg # of iterations =  2.0

     total cpu time spent up to now is       80.9 secs

     total energy              =    -278.50340256 Ry
     estimated scf accuracy    <       0.00008368 Ry

     iteration # 10     ecut=    90.00 Ry     beta= 0.70
     Davidson diagonalization with overlap
     ethr =  1.31E-07,  avg # of iterations =  2.0

     total cpu time spent up to now is       88.9 secs

     total energy              =    -278.50342200 Ry
     estimated scf accuracy    <       0.00000324 Ry

     iteration # 11     ecut=    90.00 Ry     beta= 0.70
     Davidson diagonalization with overlap
     ethr =  5.06E-09,  avg # of iterations =  3.1

     total cpu time spent up to now is       98.3 secs

     total energy              =    -278.50342341 Ry
     estimated scf accuracy    <       0.00000015 Ry

     iteration # 12     ecut=    90.00 Ry     beta= 0.70
     Davidson diagonalization with overlap
     ethr =  2.41E-10,  avg # of iterations =  3.1

     total cpu time spent up to now is      107.4 secs

     total energy              =    -278.50342336 Ry
     estimated scf accuracy    <       0.00000025 Ry

     iteration # 13     ecut=    90.00 Ry     beta= 0.70
     Davidson diagonalization with overlap
     ethr =  2.41E-10,  avg # of iterations =  2.6

     total cpu time spent up to now is      116.2 secs

     End of self-consistent calculation

     Number of k-points >= 100: set verbosity='high' to print the bands.

     highest occupied level (ev):    -2.8977

!    total energy              =    -278.50342340 Ry
     estimated scf accuracy    <          7.3E-09 Ry

     The total energy is the sum of the following terms:
     one-electron contribution =    -222.97568577 Ry
     hartree contribution      =     134.41227772 Ry
     xc contribution           =     -71.94773844 Ry
     ewald contribution        =    -117.99227691 Ry

     convergence has been achieved in  13 iterations

     Forces acting on atoms (cartesian axes, Ry/au):

     atom    1 type  2   force =     0.00000000    0.11964185   -0.08749747
     atom    2 type  2   force =     0.00000000   -0.11964192   -0.08749745
     atom    3 type  2   force =     0.00000000    0.11964183   -0.08749740
     atom    4 type  2   force =     0.00000000   -0.11964197   -0.08749745
     atom    5 type  2   force =     0.00000000    0.12063365   -0.08383493
     atom    6 type  2   force =     0.00000000   -0.12063366   -0.08383495
     atom    7 type  2   force =     0.00000000    0.12063370   -0.08383493
     atom    8 type  2   force =     0.00000000   -0.12063347   -0.08383477
     atom    9 type  1   force =     0.00000000    0.00513527    0.13507353
     atom   10 type  1   force =     0.00000000   -0.00513529    0.13507334
     atom   11 type  1   force =     0.00000000    0.00513529    0.13507341
     atom   12 type  1   force =     0.00000000   -0.00513530    0.13507338
     atom   13 type  1   force =     0.00000000   -0.12528831   -0.04717863
     atom   14 type  1   force =     0.00000000    0.12528845   -0.04717872
     atom   15 type  1   force =     0.00000000   -0.12528834   -0.04717867
     atom   16 type  1   force =     0.00000000    0.12528832   -0.04717866
     atom   17 type  1   force =     0.11253068   -0.06182081    0.04171880
     atom   18 type  1   force =    -0.11253068    0.06182080    0.04171879
     atom   19 type  1   force =     0.11253068    0.06182080    0.04171879
     atom   20 type  1   force =    -0.11253068   -0.06182081    0.04171880
     atom   21 type  1   force =     0.11253071   -0.06182082    0.04171881
     atom   22 type  1   force =    -0.11253069    0.06182078    0.04171878
     atom   23 type  1   force =     0.11253069    0.06182078    0.04171878
     atom   24 type  1   force =    -0.11253071   -0.06182082    0.04171881

     Total force =     0.681750     Total SCF correction =     0.000072


     Computing stress (Cartesian axis) and pressure

          total   stress  (Ry/bohr**3)                   (kbar)     P=      205.19
   0.00137791   0.00000000   0.00000000          202.70        0.00        0.00
   0.00000000   0.00142806   0.00000000            0.00      210.07        0.00
   0.00000000   0.00000000   0.00137863            0.00        0.00      202.80


     Writing all to output data dir ./iceIh/iceIh.save/ :
     XML data file, charge density, pseudopotentials, collected wavefunctions

     init_run     :      5.56s CPU      5.70s WALL (       1 calls)
     electrons    :    108.61s CPU    110.32s WALL (       1 calls)
     forces       :      0.49s CPU      0.50s WALL (       1 calls)
     stress       :      7.20s CPU      7.23s WALL (       1 calls)

     Called by init_run:
     wfcinit      :      3.50s CPU      3.57s WALL (       1 calls)
     potinit      :      1.58s CPU      1.61s WALL (       1 calls)
     hinit0       :      0.42s CPU      0.43s WALL (       1 calls)

     Called by electrons:
     c_bands      :     95.60s CPU     97.02s WALL (      13 calls)
     sum_band     :     12.19s CPU     12.33s WALL (      13 calls)
     v_of_rho     :      2.29s CPU      2.39s WALL (      14 calls)
     newd         :      0.04s CPU      0.05s WALL (      14 calls)
     mix_rho      :      0.03s CPU      0.03s WALL (      13 calls)
     vdW_kernel   :      1.52s CPU      1.52s WALL (       1 calls)

     Called by c_bands:
     init_us_2    :      1.47s CPU      1.52s WALL (    3335 calls)
     cegterg      :     92.12s CPU     92.97s WALL (    1495 calls)

     Called by *egterg:
     cdiaghg      :      8.74s CPU      8.77s WALL (    5251 calls)
     h_psi        :     71.87s CPU     72.66s WALL (    5366 calls)
     s_psi        :      2.78s CPU      2.80s WALL (    5366 calls)
     g_psi        :      0.24s CPU      0.24s WALL (    3756 calls)

     Called by h_psi:
     h_psi:calbec :      4.31s CPU      4.35s WALL (    5366 calls)
     vloc_psi     :     64.20s CPU     64.91s WALL (    5366 calls)
     add_vuspsi   :      2.91s CPU      2.94s WALL (    5366 calls)

     General routines
     calbec       :      5.80s CPU      5.86s WALL (    7436 calls)
     fft          :      0.79s CPU      0.80s WALL (     906 calls)
     ffts         :      0.01s CPU      0.01s WALL (      13 calls)
     fftw         :     67.73s CPU     68.48s WALL (  337362 calls)

     Parallel routines

     PWSCF        :   2m 4.11s CPU   2m13.55s WALL


   This run was terminated on:  14:45:31  26Mar2026            

=------------------------------------------------------------------------------=
   JOB DONE.
=------------------------------------------------------------------------------=
