
     Program PWSCF v.7.3.1 starts on 26Mar2026 at 14:47:47 

     This program is part of the open-source Quantum ESPRESSO suite
     for quantum simulation of materials; please cite
         "P. Giannozzi et al., J. Phys.:Condens. Matter 21 395502 (2009);
         "P. Giannozzi et al., J. Phys.:Condens. Matter 29 465901 (2017);
         "P. Giannozzi et al., J. Chem. Phys. 152 154105 (2020);
          URL http://www.quantum-espresso.org", 
     in publications or presentations arising from this work. More details at
     http://www.quantum-espresso.org/quote

     Parallel version (MPI), running on   128 processors

     MPI processes distributed on     1 nodes
     237800 MiB available memory on the printing compute node when the environment starts

     Waiting for input...
     Reading input from standard input

     Current dimensions of program PWSCF are:
     Max number of different atomic species (ntypx) = 10
     Max number of k-points (npk) =  40000
     Max angular momentum in pseudopotentials (lmaxx) =  4

     IMPORTANT: XC functional enforced from input :
     Exchange-correlation= VDW-DF2
                           (   1   4  13   0   2   0   0)
     Any further DFT definition will be discarded
     Please, verify this is what you really want

     Found identity + ( -0.5000 -0.5000 -0.0000) symmetry
     This is a supercell, fractional translations are disabled

     K-points division:     npool     =       4
     R & G space division:  proc/nbgrp/npool/nimage =      32
     Subspace diagonalization in iterative solution of the eigenvalue problem:
     a serial algorithm will be used


     Parallelization info
     --------------------
     sticks:   dense  smooth     PW     G-vecs:    dense   smooth      PW
     Min          97      97     27                 5093     5093     745
     Max          98      98     28                 5102     5102     748
     Sum        3113    3113    867               163047   163047   23883

     Using Slab Decomposition



     bravais-lattice index     =            8
     lattice parameter (alat)  =       7.9460  a.u.
     unit-cell volume          =    1414.5272 (a.u.)^3
     number of atoms/cell      =           24
     number of atomic types    =            2
     number of electrons       =        64.00
     number of Kohn-Sham states=           32
     kinetic-energy cutoff     =      90.0000  Ry
     charge density cutoff     =     360.0000  Ry
     scf convergence threshold =      1.0E-07
     mixing beta               =       0.7000
     number of iterations used =            8  plain     mixing
     Exchange-correlation= VDW-DF2
                           (   1   4  13   0   2   0   0)

     celldm(1)=   7.946048  celldm(2)=   1.732119  celldm(3)=   1.627721
     celldm(4)=   0.000000  celldm(5)=   0.000000  celldm(6)=   0.000000

     crystal axes: (cart. coord. in units of alat)
               a(1) = (   1.000000   0.000000   0.000000 )  
               a(2) = (   0.000000   1.732119   0.000000 )  
               a(3) = (   0.000000   0.000000   1.627721 )  

     reciprocal axes: (cart. coord. in units 2 pi/alat)
               b(1) = (  1.000000  0.000000  0.000000 )  
               b(2) = (  0.000000  0.577328  0.000000 )  
               b(3) = (  0.000000  0.000000  0.614356 )  


     PseudoPot. # 1 for H  read from file:
     ./H.pbe-van_ak.UPF
     MD5 check sum: 077eb6d537518a38cb46c6de387227b7
     Pseudo is Ultrasoft, Zval =  1.0
     Generated by new atomic code, or converted to UPF format
     Using radial grid of  615 points,  1 beta functions with: 
                l(1) =   0
     Q(r) pseudized with  8 coefficients,  rinner =    0.800

     PseudoPot. # 2 for O  read from file:
     ./O.pbe-van_ak.UPF
     MD5 check sum: 78c19812648e8988a0fe644b0f25305e
     Pseudo is Ultrasoft, Zval =  6.0
     Generated by new atomic code, or converted to UPF format
     Using radial grid of  737 points,  4 beta functions with: 
                l(1) =   0
                l(2) =   0
                l(3) =   1
                l(4) =   1
     Q(r) pseudized with  8 coefficients,  rinner =    0.800   0.800   0.800


     atomic species   valence    mass     pseudopotential
     H                 1.00     1.00800     H ( 1.00)
     O                 6.00    16.00000     O ( 1.00)

      2 Sym. Ops. (no inversion) found



   Cartesian axes

     site n.     atom                  positions (alat units)
         1        O      tau(   1) = (   0.0000000   1.1505053   0.0983911  )
         2        O      tau(   2) = (   0.0000000   0.5816137   0.9122516  )
         3        O      tau(   3) = (   0.5000000   0.2844458   0.0983911  )
         4        O      tau(   4) = (   0.5000000   1.4476733   0.9122516  )
         5        O      tau(   5) = (   0.5000000   1.4413210   1.5245781  )
         6        O      tau(   6) = (   0.5000000   0.2907980   0.7107175  )
         7        O      tau(   7) = (   0.0000000   0.5752615   1.5245780  )
         8        O      tau(   8) = (   0.0000000   1.1568575   0.7107175  )
         9        H      tau(   9) = (   0.0000000   1.1476935   0.3199225  )
        10        H      tau(  10) = (   0.0000000   0.5844255   1.1337830  )
        11        H      tau(  11) = (   0.5000000   0.2816340   0.3199225  )
        12        H      tau(  12) = (   0.5000000   1.4504851   1.1337830  )
        13        H      tau(  13) = (   0.0000000   0.9389577   0.0320281  )
        14        H      tau(  14) = (   0.0000000   0.7931613   0.8458886  )
        15        H      tau(  15) = (   0.5000000   0.0728982   0.0320281  )
        16        H      tau(  16) = (   0.5000000   1.6592209   0.8458886  )
        17        H      tau(  17) = (   0.6777387   1.3318248   1.5989889  )
        18        H      tau(  18) = (   0.3222613   0.4002942   0.7851284  )
        19        H      tau(  19) = (   0.6777387   0.4002942   0.7851284  )
        20        H      tau(  20) = (   0.3222613   1.3318248   1.5989889  )
        21        H      tau(  21) = (   0.1777387   0.4657653   1.5989889  )
        22        H      tau(  22) = (   0.8222613   1.2663538   0.7851284  )
        23        H      tau(  23) = (   0.1777387   1.2663538   0.7851284  )
        24        H      tau(  24) = (   0.8222613   0.4657653   1.5989889  )

     number of k points=   460

     Number of k-points >= 100: set verbosity='high' to print them.

     Dense  grid:   163047 G-vectors     FFT dimensions: (  48,  90,  80)

     Estimated max dynamical RAM per process >      42.98 MB

     Estimated total dynamical RAM >       5.26 GB

     Initial potential from superposition of free atoms

     starting charge      63.9998, renormalised to      64.0000


     %%%%%%%%%%%%%%%%%%%%%%%%%%%%%%%%%%%%%%%%%%%%%%%%%%%%%%%%%%%%%%%%%%%%%%%%
     %                                                                      %
     % You are using vdW-DF, which was implemented by the Thonhauser group. %
     % Please cite the following two papers that made this development      %
     % possible and the two reviews that describe the various versions:     %
     %                                                                      %
     %   T. Thonhauser et al., PRL 115, 136402 (2015).                      %
     %   T. Thonhauser et al., PRB 76, 125112 (2007).                       %
     %   K. Berland et al., Rep. Prog. Phys. 78, 066501 (2015).             %
     %   D.C. Langreth et al., J. Phys.: Condens. Matter 21, 084203 (2009). %
     %                                                                      %
     % If you are calculating stress with vdW-DF, please also cite:         %
     %                                                                      %
     %   R. Sabatini et al., J. Phys.: Condens. Matter 24, 424209 (2012).   %
     %                                                                      %
     %%%%%%%%%%%%%%%%%%%%%%%%%%%%%%%%%%%%%%%%%%%%%%%%%%%%%%%%%%%%%%%%%%%%%%%%

     %%%%%%%%%%%%%%%%%%%%%%%%%%%%%%%%%%%%%%%%%%%%%%%%%%%%%%%%%%%%%%%%%%%%%%%%
     %                                                                      %
     %  vdW-DF NEWS:                                                        %
     %                                                                      %
     %  * vdW-DF3 is now available. DOI: 10.1021/acs.jctc.0c00471           %
     %    use with input_dft = 'vdW-DF3-opt1' or 'vdW-DF3-opt2'             %
     %                                                                      %
     %  * Unscreened and range-separated hybrid vdW-DF-cx functionals       %
     %    DOI: 10.1063/1.4986522 and 10.1088/1361-648X/ac2ad2               %
     %    use with input_dft = 'vdW-DF-cx0'    and 'vdW-DF-ahcx'            %
     %  * Unscreened and range-separated hybrid vdW-DF2-b86r functionals    %
     %    DOI: 10.1063/1.4986522 and DOI: 10.1103/PhysRevX.12.041003        %
     %    use with input_dft = 'vdW-DF2-br0' and 'vdW-DF2-ahbr'             %
     %                                                                      %
     %%%%%%%%%%%%%%%%%%%%%%%%%%%%%%%%%%%%%%%%%%%%%%%%%%%%%%%%%%%%%%%%%%%%%%%%


     Starting wfcs are   48 randomized atomic wfcs

     total cpu time spent up to now is        6.0 secs

     per-process dynamical memory:    50.4 Mb

     Self-consistent Calculation

     iteration #  1     ecut=    90.00 Ry     beta= 0.70
     Davidson diagonalization with overlap
     ethr =  1.00E-02,  avg # of iterations =  2.0

     total cpu time spent up to now is       13.8 secs

     total energy              =    -277.03650163 Ry
     estimated scf accuracy    <       3.57139011 Ry

     iteration #  2     ecut=    90.00 Ry     beta= 0.70
     Davidson diagonalization with overlap
     ethr =  5.58E-03,  avg # of iterations =  3.0

     total cpu time spent up to now is       24.0 secs

     total energy              =    -278.20944238 Ry
     estimated scf accuracy    <       1.87362887 Ry

     iteration #  3     ecut=    90.00 Ry     beta= 0.70
     Davidson diagonalization with overlap
     ethr =  2.93E-03,  avg # of iterations =  2.0

     total cpu time spent up to now is       32.0 secs

     total energy              =    -278.47347081 Ry
     estimated scf accuracy    <       0.06582769 Ry

     iteration #  4     ecut=    90.00 Ry     beta= 0.70
     Davidson diagonalization with overlap
     ethr =  1.03E-04,  avg # of iterations =  4.0

     total cpu time spent up to now is       43.7 secs

     total energy              =    -278.52316541 Ry
     estimated scf accuracy    <       0.08471528 Ry

     iteration #  5     ecut=    90.00 Ry     beta= 0.70
     Davidson diagonalization with overlap
     ethr =  1.03E-04,  avg # of iterations =  2.0

     total cpu time spent up to now is       50.8 secs

     total energy              =    -278.52711349 Ry
     estimated scf accuracy    <       0.01133931 Ry

     iteration #  6     ecut=    90.00 Ry     beta= 0.70
     Davidson diagonalization with overlap
     ethr =  1.77E-05,  avg # of iterations =  2.0

     total cpu time spent up to now is       58.1 secs

     total energy              =    -278.52684348 Ry
     estimated scf accuracy    <       0.00292908 Ry

     iteration #  7     ecut=    90.00 Ry     beta= 0.70
     Davidson diagonalization with overlap
     ethr =  4.58E-06,  avg # of iterations =  3.0

     total cpu time spent up to now is       67.1 secs

     total energy              =    -278.52840182 Ry
     estimated scf accuracy    <       0.00047090 Ry

     iteration #  8     ecut=    90.00 Ry     beta= 0.70
     Davidson diagonalization with overlap
     ethr =  7.36E-07,  avg # of iterations =  2.0

     total cpu time spent up to now is       73.6 secs

     total energy              =    -278.52820697 Ry
     estimated scf accuracy    <       0.00056531 Ry

     iteration #  9     ecut=    90.00 Ry     beta= 0.70
     Davidson diagonalization with overlap
     ethr =  7.36E-07,  avg # of iterations =  2.0

     total cpu time spent up to now is       80.7 secs

     total energy              =    -278.52821176 Ry
     estimated scf accuracy    <       0.00009945 Ry

     iteration # 10     ecut=    90.00 Ry     beta= 0.70
     Davidson diagonalization with overlap
     ethr =  1.55E-07,  avg # of iterations =  2.0

     total cpu time spent up to now is       88.5 secs

     total energy              =    -278.52823472 Ry
     estimated scf accuracy    <       0.00000413 Ry

     iteration # 11     ecut=    90.00 Ry     beta= 0.70
     Davidson diagonalization with overlap
     ethr =  6.45E-09,  avg # of iterations =  3.4

     total cpu time spent up to now is       97.8 secs

     total energy              =    -278.52823630 Ry
     estimated scf accuracy    <       0.00000034 Ry

     iteration # 12     ecut=    90.00 Ry     beta= 0.70
     Davidson diagonalization with overlap
     ethr =  5.33E-10,  avg # of iterations =  2.5

     total cpu time spent up to now is      106.0 secs

     total energy              =    -278.52823618 Ry
     estimated scf accuracy    <       0.00000046 Ry

     iteration # 13     ecut=    90.00 Ry     beta= 0.70
     Davidson diagonalization with overlap
     ethr =  5.33E-10,  avg # of iterations =  2.0

     total cpu time spent up to now is      113.7 secs

     End of self-consistent calculation

     Number of k-points >= 100: set verbosity='high' to print the bands.

     highest occupied level (ev):    -2.9648

!    total energy              =    -278.52823620 Ry
     estimated scf accuracy    <       0.00000005 Ry

     The total energy is the sum of the following terms:
     one-electron contribution =    -223.92532296 Ry
     hartree contribution      =     134.74632754 Ry
     xc contribution           =     -71.86228412 Ry
     ewald contribution        =    -117.48695666 Ry

     convergence has been achieved in  13 iterations

     Forces acting on atoms (cartesian axes, Ry/au):

     atom    1 type  2   force =     0.00000000    0.11134008   -0.08120669
     atom    2 type  2   force =     0.00000000   -0.11134039   -0.08120675
     atom    3 type  2   force =     0.00000000    0.11134025   -0.08120677
     atom    4 type  2   force =     0.00000000   -0.11134016   -0.08120668
     atom    5 type  2   force =     0.00000000    0.11191457   -0.07791699
     atom    6 type  2   force =     0.00000000   -0.11191456   -0.07791706
     atom    7 type  2   force =     0.00000000    0.11191455   -0.07791706
     atom    8 type  2   force =     0.00000000   -0.11191456   -0.07791708
     atom    9 type  1   force =     0.00000000    0.00483266    0.12546493
     atom   10 type  1   force =     0.00000000   -0.00483265    0.12546487
     atom   11 type  1   force =     0.00000000    0.00483265    0.12546497
     atom   12 type  1   force =     0.00000000   -0.00483264    0.12546489
     atom   13 type  1   force =     0.00000000   -0.11634908   -0.04387374
     atom   14 type  1   force =     0.00000000    0.11634918   -0.04387376
     atom   15 type  1   force =     0.00000000   -0.11634911   -0.04387374
     atom   16 type  1   force =     0.00000000    0.11634919   -0.04387377
     atom   17 type  1   force =     0.10455426   -0.05740439    0.03876631
     atom   18 type  1   force =    -0.10455423    0.05740437    0.03876629
     atom   19 type  1   force =     0.10455423    0.05740437    0.03876629
     atom   20 type  1   force =    -0.10455426   -0.05740439    0.03876631
     atom   21 type  1   force =     0.10455425   -0.05740439    0.03876631
     atom   22 type  1   force =    -0.10455426    0.05740441    0.03876631
     atom   23 type  1   force =     0.10455426    0.05740441    0.03876631
     atom   24 type  1   force =    -0.10455425   -0.05740439    0.03876631

     Total force =     0.633319     Total SCF correction =     0.000184


     Computing stress (Cartesian axis) and pressure

          total   stress  (Ry/bohr**3)                   (kbar)     P=      188.52
   0.00126554   0.00000000   0.00000000          186.17        0.00        0.00
   0.00000000   0.00131251   0.00000000            0.00      193.08        0.00
   0.00000000   0.00000000   0.00126655            0.00        0.00      186.32


     Writing all to output data dir ./iceIh/iceIh.save/ :
     XML data file, charge density, pseudopotentials, collected wavefunctions

     init_run     :      5.54s CPU      5.66s WALL (       1 calls)
     electrons    :    105.99s CPU    107.80s WALL (       1 calls)
     forces       :      0.48s CPU      0.50s WALL (       1 calls)
     stress       :      7.27s CPU      7.29s WALL (       1 calls)

     Called by init_run:
     wfcinit      :      3.47s CPU      3.54s WALL (       1 calls)
     potinit      :      1.58s CPU      1.61s WALL (       1 calls)
     hinit0       :      0.42s CPU      0.42s WALL (       1 calls)

     Called by electrons:
     c_bands      :     93.08s CPU     94.64s WALL (      13 calls)
     sum_band     :     12.08s CPU     12.21s WALL (      13 calls)
     v_of_rho     :      2.30s CPU      2.39s WALL (      14 calls)
     newd         :      0.04s CPU      0.04s WALL (      14 calls)
     mix_rho      :      0.03s CPU      0.03s WALL (      13 calls)
     vdW_kernel   :      1.51s CPU      1.52s WALL (       1 calls)

     Called by c_bands:
     init_us_2    :      1.46s CPU      1.50s WALL (    3335 calls)
     cegterg      :     89.41s CPU     90.34s WALL (    1495 calls)

     Called by *egterg:
     cdiaghg      :      8.48s CPU      8.51s WALL (    5144 calls)
     h_psi        :     69.59s CPU     70.47s WALL (    5259 calls)
     s_psi        :      2.71s CPU      2.72s WALL (    5259 calls)
     g_psi        :      0.23s CPU      0.23s WALL (    3649 calls)

     Called by h_psi:
     h_psi:calbec :      4.28s CPU      4.31s WALL (    5259 calls)
     vloc_psi     :     62.01s CPU     62.82s WALL (    5259 calls)
     add_vuspsi   :      2.87s CPU      2.89s WALL (    5259 calls)

     General routines
     calbec       :      5.82s CPU      5.88s WALL (    7329 calls)
     fft          :      0.81s CPU      0.82s WALL (     906 calls)
     ffts         :      0.01s CPU      0.01s WALL (      13 calls)
     fftw         :     65.53s CPU     66.34s WALL (  330534 calls)

     Parallel routines

     PWSCF        :   2m 1.57s CPU   2m10.33s WALL


   This run was terminated on:  14:49:57  26Mar2026            

=------------------------------------------------------------------------------=
   JOB DONE.
=------------------------------------------------------------------------------=
