
     Program PWSCF v.7.3.1 starts on  1Apr2026 at 17:49:36 

     This program is part of the open-source Quantum ESPRESSO suite
     for quantum simulation of materials; please cite
         "P. Giannozzi et al., J. Phys.:Condens. Matter 21 395502 (2009);
         "P. Giannozzi et al., J. Phys.:Condens. Matter 29 465901 (2017);
         "P. Giannozzi et al., J. Chem. Phys. 152 154105 (2020);
          URL http://www.quantum-espresso.org", 
     in publications or presentations arising from this work. More details at
     http://www.quantum-espresso.org/quote

     Parallel version (MPI), running on   128 processors

     MPI processes distributed on     1 nodes
     237903 MiB available memory on the printing compute node when the environment starts

     Waiting for input...
     Reading input from standard input

     Current dimensions of program PWSCF are:
     Max number of different atomic species (ntypx) = 10
     Max number of k-points (npk) =  40000
     Max angular momentum in pseudopotentials (lmaxx) =  4

     IMPORTANT: XC functional enforced from input :
     Exchange-correlation= VDW-DF2
                           (   1   4  13   0   2   0   0)
     Any further DFT definition will be discarded
     Please, verify this is what you really want

     Found identity + ( -0.5000 -0.5000  0.0000) symmetry
     This is a supercell, fractional translations are disabled

     K-points division:     npool     =       4
     R & G space division:  proc/nbgrp/npool/nimage =      32
     Subspace diagonalization in iterative solution of the eigenvalue problem:
     a serial algorithm will be used


     Parallelization info
     --------------------
     sticks:   dense  smooth     PW     G-vecs:    dense   smooth      PW
     Min          99      99     27                 5199     5199     759
     Max         100     100     28                 5202     5202     766
     Sum        3175    3175    881               166397   166397   24349

     Using Slab Decomposition



     bravais-lattice index     =            8
     lattice parameter (alat)  =       7.9971  a.u.
     unit-cell volume          =    1441.9634 (a.u.)^3
     number of atoms/cell      =           24
     number of atomic types    =            2
     number of electrons       =        64.00
     number of Kohn-Sham states=           32
     kinetic-energy cutoff     =      90.0000  Ry
     charge density cutoff     =     360.0000  Ry
     scf convergence threshold =      1.0E-07
     mixing beta               =       0.7000
     number of iterations used =            8  plain     mixing
     energy convergence thresh.=      1.0E-04
     force convergence thresh. =      1.0E-03
     Exchange-correlation= VDW-DF2
                           (   1   4  13   0   2   0   0)
     nstep                     =           50


     celldm(1)=   7.997094  celldm(2)=   1.732119  celldm(3)=   1.627721
     celldm(4)=   0.000000  celldm(5)=   0.000000  celldm(6)=   0.000000

     crystal axes: (cart. coord. in units of alat)
               a(1) = (   1.000000   0.000000   0.000000 )  
               a(2) = (   0.000000   1.732119   0.000000 )  
               a(3) = (   0.000000   0.000000   1.627721 )  

     reciprocal axes: (cart. coord. in units 2 pi/alat)
               b(1) = (  1.000000  0.000000  0.000000 )  
               b(2) = (  0.000000  0.577328  0.000000 )  
               b(3) = (  0.000000  0.000000  0.614356 )  


     PseudoPot. # 1 for H  read from file:
     ./H.pbe-van_ak.UPF
     MD5 check sum: 077eb6d537518a38cb46c6de387227b7
     Pseudo is Ultrasoft, Zval =  1.0
     Generated by new atomic code, or converted to UPF format
     Using radial grid of  615 points,  1 beta functions with: 
                l(1) =   0
     Q(r) pseudized with  8 coefficients,  rinner =    0.800

     PseudoPot. # 2 for O  read from file:
     ./O.pbe-van_ak.UPF
     MD5 check sum: 78c19812648e8988a0fe644b0f25305e
     Pseudo is Ultrasoft, Zval =  6.0
     Generated by new atomic code, or converted to UPF format
     Using radial grid of  737 points,  4 beta functions with: 
                l(1) =   0
                l(2) =   0
                l(3) =   1
                l(4) =   1
     Q(r) pseudized with  8 coefficients,  rinner =    0.800   0.800   0.800


     atomic species   valence    mass     pseudopotential
     H                 1.00     1.00800     H ( 1.00)
     O                 6.00    16.00000     O ( 1.00)

      2 Sym. Ops. (no inversion) found



   Cartesian axes

     site n.     atom                  positions (alat units)
         1        O      tau(   1) = (   0.0000000   1.1515127   0.1027092  )
         2        O      tau(   2) = (   0.0000000   0.5806063   0.9165697  )
         3        O      tau(   3) = (   0.5000000   0.2854532   0.1027092  )
         4        O      tau(   4) = (   0.5000000   1.4466659   0.9165697  )
         5        O      tau(   5) = (   0.5000000   1.4298643   1.5250118  )
         6        O      tau(   6) = (   0.5000000   0.3022548   0.7111513  )
         7        O      tau(   7) = (   0.0000000   0.5638048   1.5250118  )
         8        O      tau(   8) = (   0.0000000   1.1683143   0.7111513  )
         9        H      tau(   9) = (   0.0000000   1.1494343   0.3195216  )
        10        H      tau(  10) = (   0.0000000   0.5826848   1.1333822  )
        11        H      tau(  11) = (   0.5000000   0.2833747   0.3195216  )
        12        H      tau(  12) = (   0.5000000   1.4487443   1.1333822  )
        13        H      tau(  13) = (   0.0000000   0.9289355   0.0297873  )
        14        H      tau(  14) = (   0.0000000   0.8031836   0.8436478  )
        15        H      tau(  15) = (   0.5000000   0.0628759   0.0297873  )
        16        H      tau(  16) = (   0.5000000   1.6692431   0.8436478  )
        17        H      tau(  17) = (   0.6766000   1.3420459   1.5979337  )
        18        H      tau(  18) = (   0.3234000   0.3900732   0.7840732  )
        19        H      tau(  19) = (   0.6766000   0.3900732   0.7840732  )
        20        H      tau(  20) = (   0.3234000   1.3420459   1.5979337  )
        21        H      tau(  21) = (   0.1766000   0.4759863   1.5979337  )
        22        H      tau(  22) = (   0.8234000   1.2561327   0.7840732  )
        23        H      tau(  23) = (   0.1766000   1.2561327   0.7840732  )
        24        H      tau(  24) = (   0.8234000   0.4759863   1.5979337  )

     number of k points=   460

     Number of k-points >= 100: set verbosity='high' to print them.

     Dense  grid:   166397 G-vectors     FFT dimensions: (  50,  90,  80)

     Estimated max dynamical RAM per process >      43.80 MB

     Estimated total dynamical RAM >       5.36 GB

     Initial potential from superposition of free atoms

     starting charge      63.9998, renormalised to      64.0000


     %%%%%%%%%%%%%%%%%%%%%%%%%%%%%%%%%%%%%%%%%%%%%%%%%%%%%%%%%%%%%%%%%%%%%%%%
     %                                                                      %
     % You are using vdW-DF, which was implemented by the Thonhauser group. %
     % Please cite the following two papers that made this development      %
     % possible and the two reviews that describe the various versions:     %
     %                                                                      %
     %   T. Thonhauser et al., PRL 115, 136402 (2015).                      %
     %   T. Thonhauser et al., PRB 76, 125112 (2007).                       %
     %   K. Berland et al., Rep. Prog. Phys. 78, 066501 (2015).             %
     %   D.C. Langreth et al., J. Phys.: Condens. Matter 21, 084203 (2009). %
     %                                                                      %
     % If you are calculating stress with vdW-DF, please also cite:         %
     %                                                                      %
     %   R. Sabatini et al., J. Phys.: Condens. Matter 24, 424209 (2012).   %
     %                                                                      %
     %%%%%%%%%%%%%%%%%%%%%%%%%%%%%%%%%%%%%%%%%%%%%%%%%%%%%%%%%%%%%%%%%%%%%%%%

     %%%%%%%%%%%%%%%%%%%%%%%%%%%%%%%%%%%%%%%%%%%%%%%%%%%%%%%%%%%%%%%%%%%%%%%%
     %                                                                      %
     %  vdW-DF NEWS:                                                        %
     %                                                                      %
     %  * vdW-DF3 is now available. DOI: 10.1021/acs.jctc.0c00471           %
     %    use with input_dft = 'vdW-DF3-opt1' or 'vdW-DF3-opt2'             %
     %                                                                      %
     %  * Unscreened and range-separated hybrid vdW-DF-cx functionals       %
     %    DOI: 10.1063/1.4986522 and 10.1088/1361-648X/ac2ad2               %
     %    use with input_dft = 'vdW-DF-cx0'    and 'vdW-DF-ahcx'            %
     %  * Unscreened and range-separated hybrid vdW-DF2-b86r functionals    %
     %    DOI: 10.1063/1.4986522 and DOI: 10.1103/PhysRevX.12.041003        %
     %    use with input_dft = 'vdW-DF2-br0' and 'vdW-DF2-ahbr'             %
     %                                                                      %
     %%%%%%%%%%%%%%%%%%%%%%%%%%%%%%%%%%%%%%%%%%%%%%%%%%%%%%%%%%%%%%%%%%%%%%%%


     Starting wfcs are   48 randomized atomic wfcs

     total cpu time spent up to now is        6.1 secs

     per-process dynamical memory:    52.0 Mb

     Self-consistent Calculation

     iteration #  1     ecut=    90.00 Ry     beta= 0.70
     Davidson diagonalization with overlap
     ethr =  1.00E-02,  avg # of iterations =  2.0

     total cpu time spent up to now is       14.4 secs

     total energy              =    -276.88756806 Ry
     estimated scf accuracy    <       3.71589622 Ry

     iteration #  2     ecut=    90.00 Ry     beta= 0.70
     Davidson diagonalization with overlap
     ethr =  5.81E-03,  avg # of iterations =  3.0

     total cpu time spent up to now is       25.4 secs

     total energy              =    -278.09920629 Ry
     estimated scf accuracy    <       1.95937880 Ry

     iteration #  3     ecut=    90.00 Ry     beta= 0.70
     Davidson diagonalization with overlap
     ethr =  3.06E-03,  avg # of iterations =  2.0

     total cpu time spent up to now is       33.7 secs

     total energy              =    -278.37865710 Ry
     estimated scf accuracy    <       0.06706847 Ry

     iteration #  4     ecut=    90.00 Ry     beta= 0.70
     Davidson diagonalization with overlap
     ethr =  1.05E-04,  avg # of iterations =  4.0

     total cpu time spent up to now is       45.9 secs

     total energy              =    -278.42894774 Ry
     estimated scf accuracy    <       0.08896817 Ry

     iteration #  5     ecut=    90.00 Ry     beta= 0.70
     Davidson diagonalization with overlap
     ethr =  1.05E-04,  avg # of iterations =  2.0

     total cpu time spent up to now is       53.8 secs

     total energy              =    -278.43300186 Ry
     estimated scf accuracy    <       0.01101127 Ry

     iteration #  6     ecut=    90.00 Ry     beta= 0.70
     Davidson diagonalization with overlap
     ethr =  1.72E-05,  avg # of iterations =  2.0

     total cpu time spent up to now is       62.6 secs

     total energy              =    -278.43475414 Ry
     estimated scf accuracy    <       0.00086894 Ry

     iteration #  7     ecut=    90.00 Ry     beta= 0.70
     Davidson diagonalization with overlap
     ethr =  1.36E-06,  avg # of iterations =  4.0

     total cpu time spent up to now is       74.8 secs

     total energy              =    -278.43549072 Ry
     estimated scf accuracy    <       0.00103017 Ry

     iteration #  8     ecut=    90.00 Ry     beta= 0.70
     Davidson diagonalization with overlap
     ethr =  1.36E-06,  avg # of iterations =  1.0

     total cpu time spent up to now is       80.9 secs

     total energy              =    -278.43541798 Ry
     estimated scf accuracy    <       0.00035982 Ry

     iteration #  9     ecut=    90.00 Ry     beta= 0.70
     Davidson diagonalization with overlap
     ethr =  5.62E-07,  avg # of iterations =  2.0

     total cpu time spent up to now is       89.0 secs

     total energy              =    -278.43544701 Ry
     estimated scf accuracy    <       0.00005094 Ry

     iteration # 10     ecut=    90.00 Ry     beta= 0.70
     Davidson diagonalization with overlap
     ethr =  7.96E-08,  avg # of iterations =  2.0

     total cpu time spent up to now is       96.1 secs

     total energy              =    -278.43544717 Ry
     estimated scf accuracy    <       0.00001250 Ry

     iteration # 11     ecut=    90.00 Ry     beta= 0.70
     Davidson diagonalization with overlap
     ethr =  1.95E-08,  avg # of iterations =  2.0

     total cpu time spent up to now is      104.4 secs

     total energy              =    -278.43544873 Ry
     estimated scf accuracy    <       0.00000147 Ry

     iteration # 12     ecut=    90.00 Ry     beta= 0.70
     Davidson diagonalization with overlap
     ethr =  2.30E-09,  avg # of iterations =  2.7

     total cpu time spent up to now is      113.9 secs

     End of self-consistent calculation

     Number of k-points >= 100: set verbosity='high' to print the bands.

     highest occupied level (ev):    -2.9915

!    total energy              =    -278.43544919 Ry
     estimated scf accuracy    <       0.00000006 Ry

     The total energy is the sum of the following terms:
     one-electron contribution =    -227.49354006 Ry
     hartree contribution      =     136.20777063 Ry
     xc contribution           =     -71.95871366 Ry
     ewald contribution        =    -115.19096610 Ry

     convergence has been achieved in  12 iterations

     Forces acting on atoms (cartesian axes, Ry/au):

     atom    1 type  2   force =     0.00000000    0.00329625   -0.15466238
     atom    2 type  2   force =     0.00000000   -0.00329628   -0.15466115
     atom    3 type  2   force =     0.00000000    0.00329615   -0.15466229
     atom    4 type  2   force =     0.00000000   -0.00329597   -0.15466116
     atom    5 type  2   force =     0.00000000    0.22297052   -0.16866162
     atom    6 type  2   force =     0.00000000   -0.22297045   -0.16866144
     atom    7 type  2   force =     0.00000000    0.22297050   -0.16866158
     atom    8 type  2   force =     0.00000000   -0.22297023   -0.16866133
     atom    9 type  1   force =     0.00000000    0.00029079    0.15431377
     atom   10 type  1   force =     0.00000000   -0.00029079    0.15431294
     atom   11 type  1   force =     0.00000000    0.00029077    0.15431384
     atom   12 type  1   force =     0.00000000   -0.00029075    0.15431291
     atom   13 type  1   force =     0.00000000   -0.00653059   -0.00611484
     atom   14 type  1   force =     0.00000000    0.00653058   -0.00611486
     atom   15 type  1   force =     0.00000000   -0.00653056   -0.00611484
     atom   16 type  1   force =     0.00000000    0.00653060   -0.00611483
     atom   17 type  1   force =     0.19397659   -0.11167542    0.08756236
     atom   18 type  1   force =    -0.19397633    0.11167526    0.08756230
     atom   19 type  1   force =     0.19397633    0.11167526    0.08756230
     atom   20 type  1   force =    -0.19397659   -0.11167542    0.08756236
     atom   21 type  1   force =     0.19397673   -0.11167546    0.08756241
     atom   22 type  1   force =    -0.19397648    0.11167535    0.08756236
     atom   23 type  1   force =     0.19397648    0.11167535    0.08756236
     atom   24 type  1   force =    -0.19397673   -0.11167546    0.08756241

     Total force =     0.982888     Total SCF correction =     0.000301


     Computing stress (Cartesian axis) and pressure

          total   stress  (Ry/bohr**3)                   (kbar)     P=      206.34
   0.00193843   0.00000000   0.00000000          285.15        0.00        0.00
   0.00000000   0.00079069  -0.00000000            0.00      116.31       -0.00
   0.00000000  -0.00000000   0.00147883            0.00       -0.00      217.54


     BFGS Geometry Optimization
     Energy error            =      0.0E+00 Ry
     Gradient error          =      2.2E-01 Ry/Bohr

     number of scf cycles    =   1
     number of bfgs steps    =   0

     energy             new  =    -278.4354491891 Ry

     new trust radius        =       0.2795757395 bohr
     new conv_thr            =       0.0000001000 Ry


ATOMIC_POSITIONS (crystal)
O                0.0000000000        0.6650379514        0.0512184684
O                0.0000000000        0.3349620466        0.5512185399
O                0.5000000000        0.1650379444        0.0512184753
O                0.5000000000        0.8349620684        0.5512185394
O                0.5000000000        0.8415967358        0.9239430299
O                0.5000000000        0.1584032692        0.4239430143
O                0.0000000000        0.3415967349        0.9239430330
O                0.0000000000        0.6584032850        0.4239430227
H                0.0000000000        0.6636210209        0.2081547537
H                0.0000000000        0.3363789793        0.7081547198
H                0.5000000000        0.1636210192        0.2081547587
H                0.5000000000        0.8363789818        0.7081547177
H                0.0000000000        0.5358285465        0.0178302444
H                0.0000000000        0.4641714530        0.5178302391
H                0.5000000000        0.0358285487        0.0178302441
H                0.5000000000        0.9641714543        0.5178302411
H                0.7008558645        0.7667379125        0.9884267534
H                0.2991441671        0.2332620764        0.4884267487
H                0.7008558329        0.2332620764        0.4884267487
H                0.2991441355        0.7667379125        0.9884267534
H                0.2008558820        0.2667379092        0.9884267569
H                0.7991441484        0.7332620822        0.4884267533
H                0.2008558516        0.7332620822        0.4884267533
H                0.7991441180        0.2667379092        0.9884267569



     Writing config-only to output data dir ./iceIh_vdw/iceIh_vdw.save/ :
     XML data file
     NEW-OLD atomic charge density approx. for the potential

     total cpu time spent up to now is      122.2 secs

     per-process dynamical memory:    52.0 Mb

     Self-consistent Calculation

     iteration #  1     ecut=    90.00 Ry     beta= 0.70
     Davidson diagonalization with overlap
     ethr =  1.00E-06,  avg # of iterations = 12.0

     total cpu time spent up to now is      152.5 secs

     total energy              =    -278.49145822 Ry
     estimated scf accuracy    <       0.23380033 Ry

     iteration #  2     ecut=    90.00 Ry     beta= 0.70
     Davidson diagonalization with overlap
     ethr =  3.65E-04,  avg # of iterations =  3.0

     total cpu time spent up to now is      162.3 secs

     total energy              =    -278.54694463 Ry
     estimated scf accuracy    <       0.07014894 Ry

     iteration #  3     ecut=    90.00 Ry     beta= 0.70
     Davidson diagonalization with overlap
     ethr =  1.10E-04,  avg # of iterations =  2.6

     total cpu time spent up to now is      171.2 secs

     total energy              =    -278.56208478 Ry
     estimated scf accuracy    <       0.00257898 Ry

     iteration #  4     ecut=    90.00 Ry     beta= 0.70
     Davidson diagonalization with overlap
     ethr =  4.03E-06,  avg # of iterations =  2.9

     total cpu time spent up to now is      180.9 secs

     total energy              =    -278.56288403 Ry
     estimated scf accuracy    <       0.00061397 Ry

     iteration #  5     ecut=    90.00 Ry     beta= 0.70
     Davidson diagonalization with overlap
     ethr =  9.59E-07,  avg # of iterations =  2.0

     total cpu time spent up to now is      189.2 secs

     total energy              =    -278.56298044 Ry
     estimated scf accuracy    <       0.00006490 Ry

     iteration #  6     ecut=    90.00 Ry     beta= 0.70
     Davidson diagonalization with overlap
     ethr =  1.01E-07,  avg # of iterations =  4.0

     total cpu time spent up to now is      200.4 secs

     total energy              =    -278.56299865 Ry
     estimated scf accuracy    <       0.00002981 Ry

     iteration #  7     ecut=    90.00 Ry     beta= 0.70
     Davidson diagonalization with overlap
     ethr =  4.66E-08,  avg # of iterations =  2.6

     total cpu time spent up to now is      210.0 secs

     total energy              =    -278.56300664 Ry
     estimated scf accuracy    <       0.00000075 Ry

     iteration #  8     ecut=    90.00 Ry     beta= 0.70
     Davidson diagonalization with overlap
     ethr =  1.18E-09,  avg # of iterations =  4.8

     total cpu time spent up to now is      221.6 secs

     total energy              =    -278.56300667 Ry
     estimated scf accuracy    <       0.00000127 Ry

     iteration #  9     ecut=    90.00 Ry     beta= 0.70
     Davidson diagonalization with overlap
     ethr =  1.18E-09,  avg # of iterations =  2.0

     total cpu time spent up to now is      229.8 secs

     total energy              =    -278.56300669 Ry
     estimated scf accuracy    <       0.00000019 Ry

     iteration # 10     ecut=    90.00 Ry     beta= 0.70
     Davidson diagonalization with overlap
     ethr =  2.95E-10,  avg # of iterations =  3.4

     total cpu time spent up to now is      240.4 secs

     End of self-consistent calculation

     Number of k-points >= 100: set verbosity='high' to print the bands.

     highest occupied level (ev):    -2.5474

!    total energy              =    -278.56300676 Ry
     estimated scf accuracy    <       0.00000003 Ry

     The total energy is the sum of the following terms:
     one-electron contribution =    -212.38263997 Ry
     hartree contribution      =     129.51517746 Ry
     xc contribution           =     -70.42087413 Ry
     ewald contribution        =    -125.27467013 Ry

     convergence has been achieved in  10 iterations

     Forces acting on atoms (cartesian axes, Ry/au):

     atom    1 type  2   force =     0.00000000    0.06518180    0.08180524
     atom    2 type  2   force =     0.00000000   -0.06518151    0.08180454
     atom    3 type  2   force =     0.00000000    0.06518191    0.08180523
     atom    4 type  2   force =     0.00000000   -0.06518185    0.08180460
     atom    5 type  2   force =     0.00000000   -0.09680954    0.07822596
     atom    6 type  2   force =     0.00000000    0.09680945    0.07822585
     atom    7 type  2   force =     0.00000000   -0.09680956    0.07822600
     atom    8 type  2   force =     0.00000000    0.09680942    0.07822588
     atom    9 type  1   force =     0.00000000    0.00984299   -0.03858741
     atom   10 type  1   force =     0.00000000   -0.00984295   -0.03858694
     atom   11 type  1   force =     0.00000000    0.00984298   -0.03858740
     atom   12 type  1   force =     0.00000000   -0.00984292   -0.03858694
     atom   13 type  1   force =     0.00000000   -0.04865120   -0.03285337
     atom   14 type  1   force =     0.00000000    0.04865093   -0.03285325
     atom   15 type  1   force =     0.00000000   -0.04865128   -0.03285338
     atom   16 type  1   force =     0.00000000    0.04865115   -0.03285330
     atom   17 type  1   force =    -0.04763270    0.03614002   -0.04429518
     atom   18 type  1   force =     0.04763261   -0.03613999   -0.04429515
     atom   19 type  1   force =    -0.04763261   -0.03613999   -0.04429515
     atom   20 type  1   force =     0.04763270    0.03614002   -0.04429518
     atom   21 type  1   force =    -0.04763275    0.03614003   -0.04429519
     atom   22 type  1   force =     0.04763267   -0.03613997   -0.04429515
     atom   23 type  1   force =    -0.04763267   -0.03613997   -0.04429515
     atom   24 type  1   force =     0.04763275    0.03614003   -0.04429519

     Total force =     0.412496     Total SCF correction =     0.000143


     Computing stress (Cartesian axis) and pressure

          total   stress  (Ry/bohr**3)                   (kbar)     P=       -5.96
  -0.00033987   0.00000000   0.00000000          -50.00        0.00        0.00
   0.00000000   0.00039878   0.00000000            0.00       58.66        0.00
   0.00000000   0.00000000  -0.00018048            0.00        0.00      -26.55

     Energy error            =      1.3E-01 Ry
     Gradient error          =      9.7E-02 Ry/Bohr

     number of scf cycles    =   2
     number of bfgs steps    =   1

     energy             old  =    -278.4354491891 Ry
     energy             new  =    -278.5630067636 Ry

     CASE: energy            _new < energy            _old

     new trust radius        =       0.0844912724 bohr
     new conv_thr            =       0.0000000968 Ry


ATOMIC_POSITIONS (crystal)
O                0.0000000000        0.6685038202        0.0555405900
O                0.0000000000        0.3314961928        0.5555406240
O                0.5000000000        0.1685038190        0.0555405960
O                0.5000000000        0.8314961974        0.5555406269
O                0.5000000000        0.8368626321        0.9280359431
O                0.5000000000        0.1631373686        0.4280359216
O                0.0000000000        0.3368626297        0.9280359482
O                0.0000000000        0.6631373828        0.4280359318
H                0.0000000000        0.6641440202        0.2062731202
H                0.0000000000        0.3358559823        0.7062731112
H                0.5000000000        0.1641440176        0.2062731256
H                0.5000000000        0.8358559862        0.7062731089
H                0.0000000000        0.5332342621        0.0159627130
H                0.0000000000        0.4667657232        0.5159627142
H                0.5000000000        0.0332342603        0.0159627122
H                0.5000000000        0.9667657361        0.5159627138
H                0.6970861128        0.7684535994        0.9860938201
H                0.3029139113        0.2315463911        0.4860938172
H                0.6970860887        0.2315463911        0.4860938172
H                0.3029138872        0.7684535994        0.9860938201
H                0.1970861270        0.2684535965        0.9860938234
H                0.8029138969        0.7315463977        0.4860938219
H                0.1970861031        0.7315463977        0.4860938219
H                0.8029138730        0.2684535965        0.9860938234



     Writing config-only to output data dir ./iceIh_vdw/iceIh_vdw.save/ :
     XML data file
     NEW-OLD atomic charge density approx. for the potential

     total cpu time spent up to now is      248.6 secs

     per-process dynamical memory:    52.1 Mb

     Self-consistent Calculation

     iteration #  1     ecut=    90.00 Ry     beta= 0.70
     Davidson diagonalization with overlap
     ethr =  1.00E-06,  avg # of iterations =  9.2

     total cpu time spent up to now is      272.0 secs

     total energy              =    -278.63711948 Ry
     estimated scf accuracy    <       0.01642861 Ry

     iteration #  2     ecut=    90.00 Ry     beta= 0.70
     Davidson diagonalization with overlap
     ethr =  2.57E-05,  avg # of iterations =  3.0

     total cpu time spent up to now is      281.6 secs

     total energy              =    -278.64045894 Ry
     estimated scf accuracy    <       0.00376455 Ry

     iteration #  3     ecut=    90.00 Ry     beta= 0.70
     Davidson diagonalization with overlap
     ethr =  5.88E-06,  avg # of iterations =  3.3

     total cpu time spent up to now is      291.2 secs

     total energy              =    -278.64140137 Ry
     estimated scf accuracy    <       0.00036786 Ry

     iteration #  4     ecut=    90.00 Ry     beta= 0.70
     Davidson diagonalization with overlap
     ethr =  5.75E-07,  avg # of iterations =  2.9

     total cpu time spent up to now is      299.9 secs

     total energy              =    -278.64147230 Ry
     estimated scf accuracy    <       0.00001921 Ry

     iteration #  5     ecut=    90.00 Ry     beta= 0.70
     Davidson diagonalization with overlap
     ethr =  3.00E-08,  avg # of iterations =  3.0

     total cpu time spent up to now is      309.7 secs

     total energy              =    -278.64147928 Ry
     estimated scf accuracy    <       0.00000214 Ry

     iteration #  6     ecut=    90.00 Ry     beta= 0.70
     Davidson diagonalization with overlap
     ethr =  3.35E-09,  avg # of iterations =  2.3

     total cpu time spent up to now is      318.0 secs

     total energy              =    -278.64147948 Ry
     estimated scf accuracy    <       0.00000025 Ry

     iteration #  7     ecut=    90.00 Ry     beta= 0.70
     Davidson diagonalization with overlap
     ethr =  3.93E-10,  avg # of iterations =  3.3

     total cpu time spent up to now is      328.5 secs

     End of self-consistent calculation

     Number of k-points >= 100: set verbosity='high' to print the bands.

     highest occupied level (ev):    -2.6670

!    total energy              =    -278.64147955 Ry
     estimated scf accuracy    <       0.00000007 Ry

     The total energy is the sum of the following terms:
     one-electron contribution =    -214.05689272 Ry
     hartree contribution      =     130.26541555 Ry
     xc contribution           =     -70.59564789 Ry
     ewald contribution        =    -124.25435449 Ry

     convergence has been achieved in   7 iterations

     Forces acting on atoms (cartesian axes, Ry/au):

     atom    1 type  2   force =     0.00000000   -0.02169822    0.02999668
     atom    2 type  2   force =     0.00000000    0.02169806    0.02999634
     atom    3 type  2   force =     0.00000000   -0.02169823    0.02999665
     atom    4 type  2   force =     0.00000000    0.02169812    0.02999629
     atom    5 type  2   force =     0.00000000   -0.04144568    0.04660582
     atom    6 type  2   force =     0.00000000    0.04144567    0.04660582
     atom    7 type  2   force =     0.00000000   -0.04144571    0.04660582
     atom    8 type  2   force =     0.00000000    0.04144563    0.04660578
     atom    9 type  1   force =     0.00000000    0.00997122   -0.02276423
     atom   10 type  1   force =     0.00000000   -0.00997117   -0.02276393
     atom   11 type  1   force =     0.00000000    0.00997122   -0.02276422
     atom   12 type  1   force =     0.00000000   -0.00997117   -0.02276391
     atom   13 type  1   force =     0.00000000    0.02001909   -0.00977022
     atom   14 type  1   force =     0.00000000   -0.02001899   -0.00977020
     atom   15 type  1   force =     0.00000000    0.02001910   -0.00977021
     atom   16 type  1   force =     0.00000000   -0.02001906   -0.00977019
     atom   17 type  1   force =    -0.02896409    0.01734030   -0.02203401
     atom   18 type  1   force =     0.02896403   -0.01734028   -0.02203401
     atom   19 type  1   force =    -0.02896403   -0.01734028   -0.02203401
     atom   20 type  1   force =     0.02896409    0.01734030   -0.02203401
     atom   21 type  1   force =    -0.02896413    0.01734031   -0.02203402
     atom   22 type  1   force =     0.02896406   -0.01734027   -0.02203400
     atom   23 type  1   force =    -0.02896406   -0.01734027   -0.02203400
     atom   24 type  1   force =     0.02896413    0.01734031   -0.02203402

     Total force =     0.196209     Total SCF correction =     0.000188


     Computing stress (Cartesian axis) and pressure

          total   stress  (Ry/bohr**3)                   (kbar)     P=        7.60
  -0.00003340   0.00000000   0.00000000           -4.91        0.00        0.00
   0.00000000   0.00008145   0.00000000            0.00       11.98        0.00
   0.00000000   0.00000000   0.00010686            0.00        0.00       15.72

     Energy error            =      7.8E-02 Ry
     Gradient error          =      4.7E-02 Ry/Bohr

     number of scf cycles    =   3
     number of bfgs steps    =   2

     energy             old  =    -278.5630067636 Ry
     energy             new  =    -278.6414795489 Ry

     CASE: energy            _new < energy            _old

     new trust radius        =       0.1026884269 bohr
     new conv_thr            =       0.0000000466 Ry


ATOMIC_POSITIONS (crystal)
O                0.0000000000        0.6664133665        0.0594446421
O                0.0000000000        0.3335866304        0.5594446321
O                0.5000000000        0.1664133646        0.0594446436
O                0.5000000000        0.8335866402        0.5594446300
O                0.5000000000        0.8318628863        0.9338605317
O                0.5000000000        0.1681371133        0.4338605094
O                0.0000000000        0.3318628809        0.9338605370
O                0.0000000000        0.6681371225        0.4338605154
H                0.0000000000        0.6652784028        0.2034126676
H                0.0000000000        0.3347216054        0.7034126955
H                0.5000000000        0.1652783995        0.2034126732
H                0.5000000000        0.8347216093        0.7034126956
H                0.0000000000        0.5352138073        0.0146730016
H                0.0000000000        0.4647861871        0.5146730061
H                0.5000000000        0.0352138068        0.0146730018
H                0.5000000000        0.9647861935        0.5146730071
H                0.6911738475        0.7705296336        0.9833045838
H                0.3088261653        0.2294703593        0.4833045810
H                0.6911738347        0.2294703593        0.4833045810
H                0.3088261525        0.7705296336        0.9833045838
H                0.1911738534        0.2705296318        0.9833045865
H                0.8088261573        0.7294703670        0.4833045867
H                0.1911738427        0.7294703670        0.4833045867
H                0.8088261466        0.2705296318        0.9833045865



     Writing config-only to output data dir ./iceIh_vdw/iceIh_vdw.save/ :
     XML data file
     NEW-OLD atomic charge density approx. for the potential

     total cpu time spent up to now is      336.7 secs

     per-process dynamical memory:    52.1 Mb

     Self-consistent Calculation

     iteration #  1     ecut=    90.00 Ry     beta= 0.70
     Davidson diagonalization with overlap
     ethr =  1.00E-06,  avg # of iterations =  9.3

     total cpu time spent up to now is      360.1 secs

     total energy              =    -278.65068300 Ry
     estimated scf accuracy    <       0.02497711 Ry

     iteration #  2     ecut=    90.00 Ry     beta= 0.70
     Davidson diagonalization with overlap
     ethr =  3.90E-05,  avg # of iterations =  3.0

     total cpu time spent up to now is      370.3 secs

     total energy              =    -278.65707753 Ry
     estimated scf accuracy    <       0.00807812 Ry

     iteration #  3     ecut=    90.00 Ry     beta= 0.70
     Davidson diagonalization with overlap
     ethr =  1.26E-05,  avg # of iterations =  2.0

     total cpu time spent up to now is      378.4 secs

     total energy              =    -278.65861980 Ry
     estimated scf accuracy    <       0.00025775 Ry

     iteration #  4     ecut=    90.00 Ry     beta= 0.70
     Davidson diagonalization with overlap
     ethr =  4.03E-07,  avg # of iterations =  3.0

     total cpu time spent up to now is      389.2 secs

     total energy              =    -278.65873971 Ry
     estimated scf accuracy    <       0.00016092 Ry

     iteration #  5     ecut=    90.00 Ry     beta= 0.70
     Davidson diagonalization with overlap
     ethr =  2.51E-07,  avg # of iterations =  2.0

     total cpu time spent up to now is      397.2 secs

     total energy              =    -278.65875426 Ry
     estimated scf accuracy    <       0.00002146 Ry

     iteration #  6     ecut=    90.00 Ry     beta= 0.70
     Davidson diagonalization with overlap
     ethr =  3.35E-08,  avg # of iterations =  3.0

     total cpu time spent up to now is      408.1 secs

     total energy              =    -278.65876093 Ry
     estimated scf accuracy    <       0.00001376 Ry

     iteration #  7     ecut=    90.00 Ry     beta= 0.70
     Davidson diagonalization with overlap
     ethr =  2.15E-08,  avg # of iterations =  2.0

     total cpu time spent up to now is      416.9 secs

     total energy              =    -278.65876355 Ry
     estimated scf accuracy    <       0.00000018 Ry

     iteration #  8     ecut=    90.00 Ry     beta= 0.70
     Davidson diagonalization with overlap
     ethr =  2.85E-10,  avg # of iterations =  5.1

     total cpu time spent up to now is      430.8 secs

     total energy              =    -278.65876376 Ry
     estimated scf accuracy    <       0.00000036 Ry

     iteration #  9     ecut=    90.00 Ry     beta= 0.70
     Davidson diagonalization with overlap
     ethr =  2.85E-10,  avg # of iterations =  2.0

     total cpu time spent up to now is      439.2 secs

     total energy              =    -278.65876378 Ry
     estimated scf accuracy    <       0.00000005 Ry

     iteration # 10     ecut=    90.00 Ry     beta= 0.70
     Davidson diagonalization with overlap
     ethr =  7.73E-11,  avg # of iterations =  3.0

     total cpu time spent up to now is      448.4 secs

     End of self-consistent calculation

     Number of k-points >= 100: set verbosity='high' to print the bands.

     highest occupied level (ev):    -2.8158

!    total energy              =    -278.65876378 Ry
     estimated scf accuracy    <          2.5E-09 Ry

     The total energy is the sum of the following terms:
     one-electron contribution =    -218.83299537 Ry
     hartree contribution      =     132.38882898 Ry
     xc contribution           =     -71.08229339 Ry
     ewald contribution        =    -121.13230400 Ry

     convergence has been achieved in  10 iterations

     Forces acting on atoms (cartesian axes, Ry/au):

     atom    1 type  2   force =     0.00000000   -0.00512483   -0.02128165
     atom    2 type  2   force =     0.00000000    0.00512480   -0.02128118
     atom    3 type  2   force =     0.00000000   -0.00512482   -0.02128161
     atom    4 type  2   force =     0.00000000    0.00512475   -0.02128114
     atom    5 type  2   force =     0.00000000    0.03585893   -0.01939134
     atom    6 type  2   force =     0.00000000   -0.03585893   -0.01939129
     atom    7 type  2   force =     0.00000000    0.03585895   -0.01939135
     atom    8 type  2   force =     0.00000000   -0.03585893   -0.01939128
     atom    9 type  1   force =     0.00000000    0.00021821    0.01791336
     atom   10 type  1   force =     0.00000000   -0.00021823    0.01791298
     atom   11 type  1   force =     0.00000000    0.00021821    0.01791332
     atom   12 type  1   force =     0.00000000   -0.00021823    0.01791295
     atom   13 type  1   force =     0.00000000    0.00598911   -0.00041385
     atom   14 type  1   force =     0.00000000   -0.00598906   -0.00041390
     atom   15 type  1   force =     0.00000000    0.00598911   -0.00041385
     atom   16 type  1   force =     0.00000000   -0.00598903   -0.00041391
     atom   17 type  1   force =     0.01749262   -0.01945517    0.01158672
     atom   18 type  1   force =    -0.01749265    0.01945517    0.01158672
     atom   19 type  1   force =     0.01749265    0.01945517    0.01158672
     atom   20 type  1   force =    -0.01749262   -0.01945517    0.01158672
     atom   21 type  1   force =     0.01749260   -0.01945517    0.01158673
     atom   22 type  1   force =    -0.01749261    0.01945516    0.01158670
     atom   23 type  1   force =     0.01749261    0.01945516    0.01158670
     atom   24 type  1   force =    -0.01749260   -0.01945517    0.01158673

     Total force =     0.128616     Total SCF correction =     0.000038


     Computing stress (Cartesian axis) and pressure

          total   stress  (Ry/bohr**3)                   (kbar)     P=       66.72
   0.00049255   0.00000000   0.00000000           72.46        0.00        0.00
   0.00000000   0.00036746  -0.00000000            0.00       54.05       -0.00
   0.00000000  -0.00000000   0.00050068            0.00       -0.00       73.65

     Energy error            =      1.7E-02 Ry
     Gradient error          =      3.6E-02 Ry/Bohr

     number of scf cycles    =   4
     number of bfgs steps    =   3

     energy             old  =    -278.6414795489 Ry
     energy             new  =    -278.6587637840 Ry

     CASE: energy            _new < energy            _old

     new trust radius        =       0.0373226303 bohr
     new conv_thr            =       0.0000000359 Ry


ATOMIC_POSITIONS (crystal)
O                0.0000000000        0.6666414754        0.0579979335
O                0.0000000000        0.3333585233        0.5579979513
O                0.5000000000        0.1666414744        0.0579979375
O                0.5000000000        0.8333585290        0.5579979522
O                0.5000000000        0.8340595100        0.9322001235
O                0.5000000000        0.1659404898        0.4322001032
O                0.0000000000        0.3340595060        0.9322001283
O                0.0000000000        0.6659404996        0.4322001105
H                0.0000000000        0.6651324335        0.2046296994
H                0.0000000000        0.3348675731        0.7046297041
H                0.5000000000        0.1651324303        0.2046297029
H                0.5000000000        0.8348675771        0.7046297026
H                0.0000000000        0.5350777317        0.0147805683
H                0.0000000000        0.4649222628        0.5147805703
H                0.5000000000        0.0350777307        0.0147805682
H                0.5000000000        0.9649222720        0.5147805705
H                0.6932778014        0.7694016040        0.9841958421
H                0.3067222104        0.2305983889        0.4841958390
H                0.6932777896        0.2305983889        0.4841958390
H                0.3067221986        0.7694016040        0.9841958421
H                0.1932778075        0.2694016018        0.9841958449
H                0.8067222044        0.7305983960        0.4841958439
H                0.1932777956        0.7305983960        0.4841958439
H                0.8067221925        0.2694016018        0.9841958449



     Writing config-only to output data dir ./iceIh_vdw/iceIh_vdw.save/ :
     XML data file
     NEW-OLD atomic charge density approx. for the potential

     total cpu time spent up to now is      456.7 secs

     per-process dynamical memory:    52.5 Mb

     Self-consistent Calculation

     iteration #  1     ecut=    90.00 Ry     beta= 0.70
     Davidson diagonalization with overlap
     ethr =  1.00E-06,  avg # of iterations =  6.0

     total cpu time spent up to now is      473.6 secs

     total energy              =    -278.66388230 Ry
     estimated scf accuracy    <       0.00346203 Ry

     iteration #  2     ecut=    90.00 Ry     beta= 0.70
     Davidson diagonalization with overlap
     ethr =  5.41E-06,  avg # of iterations =  3.0

     total cpu time spent up to now is      483.7 secs

     total energy              =    -278.66471195 Ry
     estimated scf accuracy    <       0.00124146 Ry

     iteration #  3     ecut=    90.00 Ry     beta= 0.70
     Davidson diagonalization with overlap
     ethr =  1.94E-06,  avg # of iterations =  2.5

     total cpu time spent up to now is      492.7 secs

     total energy              =    -278.66497583 Ry
     estimated scf accuracy    <       0.00003567 Ry

     iteration #  4     ecut=    90.00 Ry     beta= 0.70
     Davidson diagonalization with overlap
     ethr =  5.57E-08,  avg # of iterations =  3.0

     total cpu time spent up to now is      503.5 secs

     total energy              =    -278.66499106 Ry
     estimated scf accuracy    <       0.00002091 Ry

     iteration #  5     ecut=    90.00 Ry     beta= 0.70
     Davidson diagonalization with overlap
     ethr =  3.27E-08,  avg # of iterations =  2.0

     total cpu time spent up to now is      511.9 secs

     total energy              =    -278.66499319 Ry
     estimated scf accuracy    <       0.00000266 Ry

     iteration #  6     ecut=    90.00 Ry     beta= 0.70
     Davidson diagonalization with overlap
     ethr =  4.15E-09,  avg # of iterations =  3.4

     total cpu time spent up to now is      522.8 secs

     total energy              =    -278.66499407 Ry
     estimated scf accuracy    <       0.00000146 Ry

     iteration #  7     ecut=    90.00 Ry     beta= 0.70
     Davidson diagonalization with overlap
     ethr =  2.28E-09,  avg # of iterations =  2.0

     total cpu time spent up to now is      531.5 secs

     End of self-consistent calculation

     Number of k-points >= 100: set verbosity='high' to print the bands.

     highest occupied level (ev):    -2.7779

!    total energy              =    -278.66499433 Ry
     estimated scf accuracy    <       0.00000003 Ry

     The total energy is the sum of the following terms:
     one-electron contribution =    -217.12569703 Ry
     hartree contribution      =     131.63168655 Ry
     xc contribution           =     -70.90787039 Ry
     ewald contribution        =    -122.26311346 Ry

     convergence has been achieved in   7 iterations

     Forces acting on atoms (cartesian axes, Ry/au):

     atom    1 type  2   force =     0.00000000   -0.00099357    0.00360346
     atom    2 type  2   force =     0.00000000    0.00099358    0.00360332
     atom    3 type  2   force =     0.00000000   -0.00099357    0.00360344
     atom    4 type  2   force =     0.00000000    0.00099360    0.00360330
     atom    5 type  2   force =     0.00000000   -0.00027494    0.00659232
     atom    6 type  2   force =     0.00000000    0.00027494    0.00659234
     atom    7 type  2   force =     0.00000000   -0.00027494    0.00659231
     atom    8 type  2   force =     0.00000000    0.00027492    0.00659232
     atom    9 type  1   force =     0.00000000    0.00208182   -0.00168923
     atom   10 type  1   force =     0.00000000   -0.00208181   -0.00168911
     atom   11 type  1   force =     0.00000000    0.00208182   -0.00168923
     atom   12 type  1   force =     0.00000000   -0.00208181   -0.00168910
     atom   13 type  1   force =     0.00000000    0.00305090   -0.00413904
     atom   14 type  1   force =     0.00000000   -0.00305092   -0.00413903
     atom   15 type  1   force =     0.00000000    0.00305091   -0.00413904
     atom   16 type  1   force =     0.00000000   -0.00305095   -0.00413902
     atom   17 type  1   force =    -0.00475382   -0.00250254   -0.00218375
     atom   18 type  1   force =     0.00475379    0.00250255   -0.00218375
     atom   19 type  1   force =    -0.00475379    0.00250255   -0.00218375
     atom   20 type  1   force =     0.00475382   -0.00250254   -0.00218375
     atom   21 type  1   force =    -0.00475384   -0.00250254   -0.00218375
     atom   22 type  1   force =     0.00475380    0.00250255   -0.00218375
     atom   23 type  1   force =    -0.00475380    0.00250255   -0.00218375
     atom   24 type  1   force =     0.00475384   -0.00250254   -0.00218375

     Total force =     0.025171     Total SCF correction =     0.000259


     Computing stress (Cartesian axis) and pressure

          total   stress  (Ry/bohr**3)                   (kbar)     P=       44.19
   0.00025952   0.00000000   0.00000000           38.18        0.00        0.00
   0.00000000   0.00031110   0.00000000            0.00       45.76        0.00
   0.00000000   0.00000000   0.00033050            0.00        0.00       48.62

     Energy error            =      6.2E-03 Ry
     Gradient error          =      6.6E-03 Ry/Bohr

     number of scf cycles    =   5
     number of bfgs steps    =   4

     energy             old  =    -278.6587637840 Ry
     energy             new  =    -278.6649943251 Ry

     CASE: energy            _new < energy            _old

     new trust radius        =       0.0063701528 bohr
     new conv_thr            =       0.0000000066 Ry


ATOMIC_POSITIONS (crystal)
O                0.0000000000        0.6665600336        0.0582421623
O                0.0000000000        0.3334399659        0.5582421717
O                0.5000000000        0.1665600322        0.0582421651
O                0.5000000000        0.8334399727        0.5582421712
O                0.5000000000        0.8340936419        0.9326881429
O                0.5000000000        0.1659063575        0.4326881238
O                0.0000000000        0.3340936380        0.9326881470
O                0.0000000000        0.6659063657        0.4326881300
H                0.0000000000        0.6652922548        0.2045440111
H                0.0000000000        0.3347077521        0.7045440228
H                0.5000000000        0.1652922515        0.2045440144
H                0.5000000000        0.8347077562        0.7045440222
H                0.0000000000        0.5353063964        0.0144501781
H                0.0000000000        0.4646935972        0.5144501809
H                0.5000000000        0.0353063960        0.0144501783
H                0.5000000000        0.9646936044        0.5144501814
H                0.6927604712        0.7691906340        0.9840377574
H                0.3072395364        0.2308093596        0.4840377543
H                0.6927604636        0.2308093596        0.4840377543
H                0.3072395288        0.7691906340        0.9840377574
H                0.1927604751        0.2691906318        0.9840377604
H                0.8072395326        0.7308093667        0.4840377593
H                0.1927604674        0.7308093667        0.4840377593
H                0.8072395249        0.2691906318        0.9840377604



     Writing config-only to output data dir ./iceIh_vdw/iceIh_vdw.save/ :
     XML data file
     NEW-OLD atomic charge density approx. for the potential

     total cpu time spent up to now is      539.9 secs

     per-process dynamical memory:    52.4 Mb

     Self-consistent Calculation

     iteration #  1     ecut=    90.00 Ry     beta= 0.70
     Davidson diagonalization with overlap
     ethr =  1.00E-06,  avg # of iterations =  3.0

     Threshold (ethr) on eigenvalues was too large:
     Diagonalizing with lowered threshold

     Davidson diagonalization with overlap
     ethr =  8.41E-08,  avg # of iterations =  2.0

     total cpu time spent up to now is      557.9 secs

     total energy              =    -278.66545719 Ry
     estimated scf accuracy    <       0.00005704 Ry

     iteration #  2     ecut=    90.00 Ry     beta= 0.70
     Davidson diagonalization with overlap
     ethr =  8.91E-08,  avg # of iterations =  2.0

     total cpu time spent up to now is      566.9 secs

     total energy              =    -278.66546951 Ry
     estimated scf accuracy    <       0.00000785 Ry

     iteration #  3     ecut=    90.00 Ry     beta= 0.70
     Davidson diagonalization with overlap
     ethr =  1.23E-08,  avg # of iterations =  2.0

     total cpu time spent up to now is      575.5 secs

     total energy              =    -278.66547102 Ry
     estimated scf accuracy    <       0.00000026 Ry

     iteration #  4     ecut=    90.00 Ry     beta= 0.70
     Davidson diagonalization with overlap
     ethr =  4.00E-10,  avg # of iterations =  3.2

     total cpu time spent up to now is      584.9 secs

     total energy              =    -278.66547107 Ry
     estimated scf accuracy    <       0.00000008 Ry

     iteration #  5     ecut=    90.00 Ry     beta= 0.70
     Davidson diagonalization with overlap
     ethr =  1.27E-10,  avg # of iterations =  3.0

     total cpu time spent up to now is      594.8 secs

     total energy              =    -278.66547109 Ry
     estimated scf accuracy    <       0.00000003 Ry

     iteration #  6     ecut=    90.00 Ry     beta= 0.70
     Davidson diagonalization with overlap
     ethr =  4.59E-11,  avg # of iterations =  2.0

     total cpu time spent up to now is      602.6 secs

     End of self-consistent calculation

     Number of k-points >= 100: set verbosity='high' to print the bands.

     highest occupied level (ev):    -2.7862

!    total energy              =    -278.66547109 Ry
     estimated scf accuracy    <          6.5E-09 Ry

     The total energy is the sum of the following terms:
     one-electron contribution =    -217.33464824 Ry
     hartree contribution      =     131.72265404 Ry
     xc contribution           =     -70.92843675 Ry
     ewald contribution        =    -122.12504014 Ry

     convergence has been achieved in   6 iterations

     Forces acting on atoms (cartesian axes, Ry/au):

     atom    1 type  2   force =     0.00000000    0.00067031    0.00058069
     atom    2 type  2   force =     0.00000000   -0.00067033    0.00058072
     atom    3 type  2   force =     0.00000000    0.00067031    0.00058068
     atom    4 type  2   force =     0.00000000   -0.00067034    0.00058072
     atom    5 type  2   force =     0.00000000    0.00153031    0.00371065
     atom    6 type  2   force =     0.00000000   -0.00153030    0.00371068
     atom    7 type  2   force =     0.00000000    0.00153031    0.00371064
     atom    8 type  2   force =     0.00000000   -0.00153031    0.00371067
     atom    9 type  1   force =     0.00000000    0.00108403    0.00036506
     atom   10 type  1   force =     0.00000000   -0.00108403    0.00036505
     atom   11 type  1   force =     0.00000000    0.00108403    0.00036506
     atom   12 type  1   force =     0.00000000   -0.00108403    0.00036504
     atom   13 type  1   force =     0.00000000    0.00175719   -0.00304356
     atom   14 type  1   force =     0.00000000   -0.00175717   -0.00304357
     atom   15 type  1   force =     0.00000000    0.00175719   -0.00304356
     atom   16 type  1   force =     0.00000000   -0.00175718   -0.00304357
     atom   17 type  1   force =    -0.00224702   -0.00327839   -0.00080642
     atom   18 type  1   force =     0.00224701    0.00327840   -0.00080643
     atom   19 type  1   force =    -0.00224701    0.00327840   -0.00080643
     atom   20 type  1   force =     0.00224702   -0.00327839   -0.00080642
     atom   21 type  1   force =    -0.00224703   -0.00327839   -0.00080642
     atom   22 type  1   force =     0.00224702    0.00327839   -0.00080643
     atom   23 type  1   force =    -0.00224702    0.00327839   -0.00080643
     atom   24 type  1   force =     0.00224703   -0.00327839   -0.00080642

     Total force =     0.015931     Total SCF correction =     0.000054


     Computing stress (Cartesian axis) and pressure

          total   stress  (Ry/bohr**3)                   (kbar)     P=       46.54
   0.00028129   0.00000000   0.00000000           41.38        0.00        0.00
   0.00000000   0.00032425  -0.00000000            0.00       47.70       -0.00
   0.00000000  -0.00000000   0.00034354            0.00       -0.00       50.54

     Energy error            =      4.8E-04 Ry
     Gradient error          =      3.7E-03 Ry/Bohr

     number of scf cycles    =   6
     number of bfgs steps    =   5

     energy             old  =    -278.6649943251 Ry
     energy             new  =    -278.6654710880 Ry

     CASE: energy            _new < energy            _old

     new trust radius        =       0.0070071681 bohr
     new conv_thr            =       0.0000000037 Ry


ATOMIC_POSITIONS (crystal)
O                0.0000000000        0.6665947052        0.0583643004
O                0.0000000000        0.3334052925        0.5583643108
O                0.5000000000        0.1665947042        0.0583643025
O                0.5000000000        0.8334052984        0.5583643107
O                0.5000000000        0.8342690722        0.9331930405
O                0.5000000000        0.1657309280        0.4331930248
O                0.0000000000        0.3342690691        0.9331930437
O                0.0000000000        0.6657309343        0.4331930301
H                0.0000000000        0.6654470805        0.2045732066
H                0.0000000000        0.3345529264        0.7045732180
H                0.5000000000        0.1654470770        0.2045732090
H                0.5000000000        0.8345529306        0.7045732174
H                0.0000000000        0.5355383063        0.0140424435
H                0.0000000000        0.4644616891        0.5140424456
H                0.5000000000        0.0355383061        0.0140424438
H                0.5000000000        0.9644616953        0.5140424460
H                0.6922813994        0.7688114702        0.9839135090
H                0.3077186050        0.2311885237        0.4839135053
H                0.6922813950        0.2311885237        0.4839135053
H                0.3077186006        0.7688114702        0.9839135090
H                0.1922814011        0.2688114679        0.9839135121
H                0.8077186038        0.7311885306        0.4839135100
H                0.1922813962        0.7311885306        0.4839135100
H                0.8077185989        0.2688114679        0.9839135121



     Writing config-only to output data dir ./iceIh_vdw/iceIh_vdw.save/ :
     XML data file
     NEW-OLD atomic charge density approx. for the potential

     total cpu time spent up to now is      610.9 secs

     per-process dynamical memory:    52.4 Mb

     Self-consistent Calculation

     iteration #  1     ecut=    90.00 Ry     beta= 0.70
     Davidson diagonalization with overlap
     ethr =  1.00E-06,  avg # of iterations =  3.0

     Threshold (ethr) on eigenvalues was too large:
     Diagonalizing with lowered threshold

     Davidson diagonalization with overlap
     ethr =  6.09E-08,  avg # of iterations =  2.0

     total cpu time spent up to now is      628.5 secs

     total energy              =    -278.66581058 Ry
     estimated scf accuracy    <       0.00004227 Ry

     iteration #  2     ecut=    90.00 Ry     beta= 0.70
     Davidson diagonalization with overlap
     ethr =  6.61E-08,  avg # of iterations =  2.0

     total cpu time spent up to now is      637.0 secs

     total energy              =    -278.66581725 Ry
     estimated scf accuracy    <       0.00000298 Ry

     iteration #  3     ecut=    90.00 Ry     beta= 0.70
     Davidson diagonalization with overlap
     ethr =  4.66E-09,  avg # of iterations =  2.2

     total cpu time spent up to now is      646.2 secs

     total energy              =    -278.66581807 Ry
     estimated scf accuracy    <       0.00000042 Ry

     iteration #  4     ecut=    90.00 Ry     beta= 0.70
     Davidson diagonalization with overlap
     ethr =  6.56E-10,  avg # of iterations =  2.2

     total cpu time spent up to now is      654.4 secs

     total energy              =    -278.66581814 Ry
     estimated scf accuracy    <       0.00000003 Ry

     iteration #  5     ecut=    90.00 Ry     beta= 0.70
     Davidson diagonalization with overlap
     ethr =  4.94E-11,  avg # of iterations =  2.7

     total cpu time spent up to now is      664.0 secs

     total energy              =    -278.66581815 Ry
     estimated scf accuracy    <          8.5E-09 Ry

     iteration #  6     ecut=    90.00 Ry     beta= 0.70
     Davidson diagonalization with overlap
     ethr =  1.33E-11,  avg # of iterations =  2.4

     total cpu time spent up to now is      672.9 secs

     End of self-consistent calculation

     Number of k-points >= 100: set verbosity='high' to print the bands.

     highest occupied level (ev):    -2.7914

!    total energy              =    -278.66581815 Ry
     estimated scf accuracy    <          1.0E-09 Ry

     The total energy is the sum of the following terms:
     one-electron contribution =    -217.42645508 Ry
     hartree contribution      =     131.76393092 Ry
     xc contribution           =     -70.93741618 Ry
     ewald contribution        =    -122.06587781 Ry

     convergence has been achieved in   6 iterations

     Forces acting on atoms (cartesian axes, Ry/au):

     atom    1 type  2   force =     0.00000000    0.00149054   -0.00053876
     atom    2 type  2   force =     0.00000000   -0.00149052   -0.00053876
     atom    3 type  2   force =     0.00000000    0.00149054   -0.00053877
     atom    4 type  2   force =     0.00000000   -0.00149053   -0.00053876
     atom    5 type  2   force =     0.00000000    0.00154787    0.00178898
     atom    6 type  2   force =     0.00000000   -0.00154788    0.00178900
     atom    7 type  2   force =     0.00000000    0.00154788    0.00178898
     atom    8 type  2   force =     0.00000000   -0.00154788    0.00178899
     atom    9 type  1   force =     0.00000000    0.00025094    0.00066744
     atom   10 type  1   force =     0.00000000   -0.00025094    0.00066744
     atom   11 type  1   force =     0.00000000    0.00025094    0.00066744
     atom   12 type  1   force =     0.00000000   -0.00025094    0.00066744
     atom   13 type  1   force =     0.00000000    0.00110879   -0.00181207
     atom   14 type  1   force =     0.00000000   -0.00110880   -0.00181207
     atom   15 type  1   force =     0.00000000    0.00110879   -0.00181207
     atom   16 type  1   force =     0.00000000   -0.00110880   -0.00181207
     atom   17 type  1   force =    -0.00049570   -0.00306696   -0.00005280
     atom   18 type  1   force =     0.00049569    0.00306696   -0.00005280
     atom   19 type  1   force =    -0.00049569    0.00306696   -0.00005280
     atom   20 type  1   force =     0.00049570   -0.00306696   -0.00005280
     atom   21 type  1   force =    -0.00049570   -0.00306696   -0.00005280
     atom   22 type  1   force =     0.00049570    0.00306696   -0.00005280
     atom   23 type  1   force =    -0.00049570    0.00306696   -0.00005280
     atom   24 type  1   force =     0.00049570   -0.00306696   -0.00005280

     Total force =     0.011391     Total SCF correction =     0.000059


     Computing stress (Cartesian axis) and pressure

          total   stress  (Ry/bohr**3)                   (kbar)     P=       47.73
   0.00029759   0.00000000   0.00000000           43.78        0.00        0.00
   0.00000000   0.00033226   0.00000000            0.00       48.88        0.00
   0.00000000   0.00000000   0.00034348            0.00        0.00       50.53

     Energy error            =      3.5E-04 Ry
     Gradient error          =      3.1E-03 Ry/Bohr

     number of scf cycles    =   7
     number of bfgs steps    =   6

     energy             old  =    -278.6654710880 Ry
     energy             new  =    -278.6658181467 Ry

     CASE: energy            _new < energy            _old

     new trust radius        =       0.0105107521 bohr
     new conv_thr            =       0.0000000031 Ry


ATOMIC_POSITIONS (crystal)
O                0.0000000000        0.6667767889        0.0584584568
O                0.0000000000        0.3332232112        0.5584584622
O                0.5000000000        0.1667767882        0.0584584577
O                0.5000000000        0.8332232165        0.5584584615
O                0.5000000000        0.8345698096        0.9338916203
O                0.5000000000        0.1654301902        0.4338916084
O                0.0000000000        0.3345698074        0.9338916220
O                0.0000000000        0.6654301939        0.4338916123
H                0.0000000000        0.6656222143        0.2046394722
H                0.0000000000        0.3343777922        0.7046394869
H                0.5000000000        0.1656222108        0.2046394736
H                0.5000000000        0.8343777965        0.7046394871
H                0.0000000000        0.5358950057        0.0134512619
H                0.0000000000        0.4641049880        0.5134512644
H                0.5000000000        0.0358950058        0.0134512622
H                0.5000000000        0.9641049921        0.5134512648
H                0.6917377389        0.7681321930        0.9837795990
H                0.3082622595        0.2318678022        0.4837795953
H                0.6917377405        0.2318678022        0.4837795953
H                0.3082622611        0.7681321930        0.9837795990
H                0.1917377378        0.2681321908        0.9837796022
H                0.8082622619        0.7318678084        0.4837795994
H                0.1917377381        0.7318678084        0.4837795994
H                0.8082622622        0.2681321908        0.9837796022



     Writing config-only to output data dir ./iceIh_vdw/iceIh_vdw.save/ :
     XML data file
     NEW-OLD atomic charge density approx. for the potential

     total cpu time spent up to now is      681.6 secs

     per-process dynamical memory:    52.4 Mb

     Self-consistent Calculation

     iteration #  1     ecut=    90.00 Ry     beta= 0.70
     Davidson diagonalization with overlap
     ethr =  1.00E-06,  avg # of iterations =  3.6

     total cpu time spent up to now is      693.7 secs

     total energy              =    -278.66608822 Ry
     estimated scf accuracy    <       0.00007578 Ry

     iteration #  2     ecut=    90.00 Ry     beta= 0.70
     Davidson diagonalization with overlap
     ethr =  1.18E-07,  avg # of iterations =  2.0

     total cpu time spent up to now is      701.7 secs

     total energy              =    -278.66609947 Ry
     estimated scf accuracy    <       0.00000462 Ry

     iteration #  3     ecut=    90.00 Ry     beta= 0.70
     Davidson diagonalization with overlap
     ethr =  7.22E-09,  avg # of iterations =  3.0

     total cpu time spent up to now is      711.2 secs

     total energy              =    -278.66610071 Ry
     estimated scf accuracy    <       0.00000151 Ry

     iteration #  4     ecut=    90.00 Ry     beta= 0.70
     Davidson diagonalization with overlap
     ethr =  2.35E-09,  avg # of iterations =  3.0

     total cpu time spent up to now is      720.1 secs

     total energy              =    -278.66610106 Ry
     estimated scf accuracy    <       0.00000011 Ry

     iteration #  5     ecut=    90.00 Ry     beta= 0.70
     Davidson diagonalization with overlap
     ethr =  1.79E-10,  avg # of iterations =  2.0

     total cpu time spent up to now is      728.7 secs

     total energy              =    -278.66610108 Ry
     estimated scf accuracy    <       0.00000002 Ry

     iteration #  6     ecut=    90.00 Ry     beta= 0.70
     Davidson diagonalization with overlap
     ethr =  2.46E-11,  avg # of iterations =  3.4

     total cpu time spent up to now is      737.8 secs

     End of self-consistent calculation

     Number of k-points >= 100: set verbosity='high' to print the bands.

     highest occupied level (ev):    -2.7965

!    total energy              =    -278.66610108 Ry
     estimated scf accuracy    <          9.1E-10 Ry

     The total energy is the sum of the following terms:
     one-electron contribution =    -217.45344987 Ry
     hartree contribution      =     131.77622700 Ry
     xc contribution           =     -70.93961860 Ry
     ewald contribution        =    -122.04925962 Ry

     convergence has been achieved in   6 iterations

     Forces acting on atoms (cartesian axes, Ry/au):

     atom    1 type  2   force =     0.00000000    0.00159201   -0.00133171
     atom    2 type  2   force =     0.00000000   -0.00159205   -0.00133161
     atom    3 type  2   force =     0.00000000    0.00159201   -0.00133170
     atom    4 type  2   force =     0.00000000   -0.00159207   -0.00133159
     atom    5 type  2   force =     0.00000000   -0.00003892    0.00019625
     atom    6 type  2   force =     0.00000000    0.00003894    0.00019628
     atom    7 type  2   force =     0.00000000   -0.00003892    0.00019626
     atom    8 type  2   force =     0.00000000    0.00003893    0.00019628
     atom    9 type  1   force =     0.00000000   -0.00062608    0.00049944
     atom   10 type  1   force =     0.00000000    0.00062608    0.00049935
     atom   11 type  1   force =     0.00000000   -0.00062608    0.00049943
     atom   12 type  1   force =     0.00000000    0.00062608    0.00049934
     atom   13 type  1   force =     0.00000000    0.00071714   -0.00012718
     atom   14 type  1   force =     0.00000000   -0.00071710   -0.00012720
     atom   15 type  1   force =     0.00000000    0.00071714   -0.00012718
     atom   16 type  1   force =     0.00000000   -0.00071709   -0.00012720
     atom   17 type  1   force =     0.00088171   -0.00180972    0.00038160
     atom   18 type  1   force =    -0.00088170    0.00180972    0.00038159
     atom   19 type  1   force =     0.00088170    0.00180972    0.00038159
     atom   20 type  1   force =    -0.00088171   -0.00180972    0.00038160
     atom   21 type  1   force =     0.00088172   -0.00180972    0.00038159
     atom   22 type  1   force =    -0.00088170    0.00180971    0.00038159
     atom   23 type  1   force =     0.00088170    0.00180971    0.00038159
     atom   24 type  1   force =    -0.00088172   -0.00180972    0.00038159

     Total force =     0.007461     Total SCF correction =     0.000118


     Computing stress (Cartesian axis) and pressure

          total   stress  (Ry/bohr**3)                   (kbar)     P=       48.06
   0.00031097   0.00000000   0.00000000           45.74        0.00        0.00
   0.00000000   0.00033434  -0.00000000            0.00       49.18       -0.00
   0.00000000  -0.00000000   0.00033483            0.00       -0.00       49.26

     Energy error            =      2.8E-04 Ry
     Gradient error          =      1.8E-03 Ry/Bohr

     number of scf cycles    =   8
     number of bfgs steps    =   7

     energy             old  =    -278.6658181467 Ry
     energy             new  =    -278.6661010834 Ry

     CASE: energy            _new < energy            _old

     new trust radius        =       0.0057442400 bohr
     new conv_thr            =       0.0000000018 Ry


ATOMIC_POSITIONS (crystal)
O                0.0000000000        0.6669611110        0.0584135704
O                0.0000000000        0.3330388857        0.5584135828
O                0.5000000000        0.1669611106        0.0584135712
O                0.5000000000        0.8330388894        0.5584135835
O                0.5000000000        0.8346395956        0.9342272246
O                0.5000000000        0.1653604057        0.4342272164
O                0.0000000000        0.3346395938        0.9342272258
O                0.0000000000        0.6653604081        0.4342272198
H                0.0000000000        0.6656464172        0.2046784518
H                0.0000000000        0.3343535888        0.7046784606
H                0.5000000000        0.1656464139        0.2046784524
H                0.5000000000        0.8343535931        0.7046784603
H                0.0000000000        0.5361190757        0.0131990521
H                0.0000000000        0.4638809216        0.5131990531
H                0.5000000000        0.0361190756        0.0131990521
H                0.5000000000        0.9638809256        0.5131990530
H                0.6915993571        0.7677269048        0.9837408550
H                0.3084006416        0.2322730906        0.4837408507
H                0.6915993584        0.2322730906        0.4837408507
H                0.3084006429        0.7677269048        0.9837408550
H                0.1915993552        0.2677269028        0.9837408580
H                0.8084006448        0.7322730960        0.4837408543
H                0.1915993552        0.7322730960        0.4837408543
H                0.8084006448        0.2677269028        0.9837408580



     Writing config-only to output data dir ./iceIh_vdw/iceIh_vdw.save/ :
     XML data file
     NEW-OLD atomic charge density approx. for the potential

     total cpu time spent up to now is      746.1 secs

     per-process dynamical memory:    53.1 Mb

     Self-consistent Calculation

     iteration #  1     ecut=    90.00 Ry     beta= 0.70
     Davidson diagonalization with overlap
     ethr =  1.00E-06,  avg # of iterations =  3.0

     Threshold (ethr) on eigenvalues was too large:
     Diagonalizing with lowered threshold

     Davidson diagonalization with overlap
     ethr =  3.10E-08,  avg # of iterations =  2.8

     total cpu time spent up to now is      764.9 secs

     total energy              =    -278.66616627 Ry
     estimated scf accuracy    <       0.00002408 Ry

     iteration #  2     ecut=    90.00 Ry     beta= 0.70
     Davidson diagonalization with overlap
     ethr =  3.76E-08,  avg # of iterations =  2.0

     total cpu time spent up to now is      773.5 secs

     total energy              =    -278.66616990 Ry
     estimated scf accuracy    <       0.00000295 Ry

     iteration #  3     ecut=    90.00 Ry     beta= 0.70
     Davidson diagonalization with overlap
     ethr =  4.61E-09,  avg # of iterations =  3.0

     total cpu time spent up to now is      783.3 secs

     total energy              =    -278.66617068 Ry
     estimated scf accuracy    <       0.00000067 Ry

     iteration #  4     ecut=    90.00 Ry     beta= 0.70
     Davidson diagonalization with overlap
     ethr =  1.05E-09,  avg # of iterations =  2.5

     total cpu time spent up to now is      791.7 secs

     total energy              =    -278.66617080 Ry
     estimated scf accuracy    <       0.00000002 Ry

     iteration #  5     ecut=    90.00 Ry     beta= 0.70
     Davidson diagonalization with overlap
     ethr =  3.77E-11,  avg # of iterations =  4.8

     total cpu time spent up to now is      803.5 secs

     total energy              =    -278.66617080 Ry
     estimated scf accuracy    <       0.00000002 Ry

     iteration #  6     ecut=    90.00 Ry     beta= 0.70
     Davidson diagonalization with overlap
     ethr =  3.61E-11,  avg # of iterations =  2.0

     total cpu time spent up to now is      811.7 secs

     End of self-consistent calculation

     Number of k-points >= 100: set verbosity='high' to print the bands.

     highest occupied level (ev):    -2.7980

!    total energy              =    -278.66617081 Ry
     estimated scf accuracy    <          9.0E-10 Ry

     The total energy is the sum of the following terms:
     one-electron contribution =    -217.42022064 Ry
     hartree contribution      =     131.76145603 Ry
     xc contribution           =     -70.93600637 Ry
     ewald contribution        =    -122.07139983 Ry

     convergence has been achieved in   6 iterations

     Forces acting on atoms (cartesian axes, Ry/au):

     atom    1 type  2   force =     0.00000000    0.00103761   -0.00063906
     atom    2 type  2   force =     0.00000000   -0.00103756   -0.00063913
     atom    3 type  2   force =     0.00000000    0.00103761   -0.00063906
     atom    4 type  2   force =     0.00000000   -0.00103756   -0.00063914
     atom    5 type  2   force =     0.00000000   -0.00108012   -0.00028823
     atom    6 type  2   force =     0.00000000    0.00108010   -0.00028825
     atom    7 type  2   force =     0.00000000   -0.00108012   -0.00028823
     atom    8 type  2   force =     0.00000000    0.00108010   -0.00028824
     atom    9 type  1   force =     0.00000000   -0.00070776   -0.00017909
     atom   10 type  1   force =     0.00000000    0.00070775   -0.00017906
     atom   11 type  1   force =     0.00000000   -0.00070776   -0.00017909
     atom   12 type  1   force =     0.00000000    0.00070775   -0.00017905
     atom   13 type  1   force =     0.00000000    0.00055986    0.00039451
     atom   14 type  1   force =     0.00000000   -0.00055990    0.00039453
     atom   15 type  1   force =     0.00000000    0.00055986    0.00039451
     atom   16 type  1   force =     0.00000000   -0.00055990    0.00039453
     atom   17 type  1   force =     0.00098030   -0.00090271    0.00035594
     atom   18 type  1   force =    -0.00098030    0.00090272    0.00035595
     atom   19 type  1   force =     0.00098030    0.00090272    0.00035595
     atom   20 type  1   force =    -0.00098030   -0.00090271    0.00035594
     atom   21 type  1   force =     0.00098031   -0.00090271    0.00035594
     atom   22 type  1   force =    -0.00098031    0.00090272    0.00035595
     atom   23 type  1   force =     0.00098031    0.00090272    0.00035595
     atom   24 type  1   force =    -0.00098031   -0.00090271    0.00035594

     Total force =     0.005493     Total SCF correction =     0.000058


     Computing stress (Cartesian axis) and pressure

          total   stress  (Ry/bohr**3)                   (kbar)     P=       47.62
   0.00031498   0.00000000   0.00000000           46.34        0.00        0.00
   0.00000000   0.00033204   0.00000000            0.00       48.85        0.00
   0.00000000   0.00000000   0.00032414            0.00        0.00       47.68

     Energy error            =      7.0E-05 Ry
     Gradient error          =      1.1E-03 Ry/Bohr

     number of scf cycles    =   9
     number of bfgs steps    =   8

     energy             old  =    -278.6661010834 Ry
     energy             new  =    -278.6661708073 Ry

     CASE: energy            _new < energy            _old

     new trust radius        =       0.0036016097 bohr
     new conv_thr            =       0.0000000010 Ry


ATOMIC_POSITIONS (crystal)
O                0.0000000000        0.6671211259        0.0583587369
O                0.0000000000        0.3328788747        0.5583587427
O                0.5000000000        0.1671211254        0.0583587373
O                0.5000000000        0.8328788784        0.5583587428
O                0.5000000000        0.8345519217        0.9343714693
O                0.5000000000        0.1654480780        0.4343714608
O                0.0000000000        0.3345519202        0.9343714701
O                0.0000000000        0.6654480802        0.4343714640
H                0.0000000000        0.6655998130        0.2046578073
H                0.0000000000        0.3344001923        0.7046578189
H                0.5000000000        0.1655998101        0.2046578077
H                0.5000000000        0.8344001965        0.7046578195
H                0.0000000000        0.5362838436        0.0131166565
H                0.0000000000        0.4637161507        0.5131166589
H                0.5000000000        0.0362838435        0.0131166561
H                0.5000000000        0.9637161537        0.5131166586
H                0.6916577175        0.7674691700        0.9837476700
H                0.3083422803        0.2325308267        0.4837476667
H                0.6916577197        0.2325308267        0.4837476667
H                0.3083422825        0.7674691700        0.9837476700
H                0.1916577161        0.2674691682        0.9837476728
H                0.8083422830        0.7325308312        0.4837476697
H                0.1916577170        0.7325308312        0.4837476697
H                0.8083422839        0.2674691682        0.9837476728



     Writing config-only to output data dir ./iceIh_vdw/iceIh_vdw.save/ :
     XML data file
     NEW-OLD atomic charge density approx. for the potential

     total cpu time spent up to now is      819.9 secs

     per-process dynamical memory:    53.1 Mb

     Self-consistent Calculation

     iteration #  1     ecut=    90.00 Ry     beta= 0.70
     Davidson diagonalization with overlap
     ethr =  1.00E-06,  avg # of iterations =  2.0

     Threshold (ethr) on eigenvalues was too large:
     Diagonalizing with lowered threshold

     Davidson diagonalization with overlap
     ethr =  1.40E-08,  avg # of iterations =  3.0

     total cpu time spent up to now is      838.2 secs

     total energy              =    -278.66620411 Ry
     estimated scf accuracy    <       0.00001070 Ry

     iteration #  2     ecut=    90.00 Ry     beta= 0.70
[...]


     Computing stress (Cartesian axis) and pressure

          total   stress  (Ry/bohr**3)                   (kbar)     P=       47.22
   0.00031566   0.00000000   0.00000000           46.43        0.00        0.00
   0.00000000   0.00032848  -0.00000000            0.00       48.32       -0.00
   0.00000000  -0.00000000   0.00031891            0.00       -0.00       46.91

     Energy error            =      3.6E-05 Ry
     Gradient error          =      1.5E-03 Ry/Bohr

     number of scf cycles    =  10
     number of bfgs steps    =   9

     energy             old  =    -278.6661708073 Ry
     energy             new  =    -278.6662068057 Ry

     CASE: energy            _new < energy            _old

     new trust radius        =       0.0034139562 bohr
     new conv_thr            =       0.0000000010 Ry


ATOMIC_POSITIONS (crystal)
O                0.0000000000        0.6672621796        0.0582874716
O                0.0000000000        0.3327378163        0.5582874854
O                0.5000000000        0.1672621791        0.0582874719
O                0.5000000000        0.8327378187        0.5582874868
O                0.5000000000        0.8343106478        0.9344249817
O                0.5000000000        0.1656893537        0.4344249756
O                0.0000000000        0.3343106463        0.9344249827
O                0.0000000000        0.6656893555        0.4344249785
H                0.0000000000        0.6655112397        0.2046166216
H                0.0000000000        0.3344887646        0.7046166254
H                0.5000000000        0.1655112374        0.2046166218
H                0.5000000000        0.8344887686        0.7046166254
H                0.0000000000        0.5364418901        0.0131116925
H                0.0000000000        0.4635581091        0.5131116932
H                0.5000000000        0.0364418899        0.0131116916
H                0.5000000000        0.9635581123        0.5131116923
H                0.6918097814        0.7672575519        0.9837796215
H                0.3081902204        0.2327424449        0.4837796181
H                0.6918097796        0.2327424449        0.4837796181
H                0.3081902186        0.7672575519        0.9837796215
H                0.1918097807        0.2672575506        0.9837796238
H                0.8081902214        0.7327424483        0.4837796205
H                0.1918097786        0.7327424483        0.4837796205
H                0.8081902193        0.2672575506        0.9837796238



     Writing config-only to output data dir ./iceIh_vdw/iceIh_vdw.save/ :
     XML data file
     NEW-OLD atomic charge density approx. for the potential

     total cpu time spent up to now is      900.1 secs

     per-process dynamical memory:    53.1 Mb

     Self-consistent Calculation

     iteration #  1     ecut=    90.00 Ry     beta= 0.70
     Davidson diagonalization with overlap
     ethr =  1.00E-06,  avg # of iterations =  2.5

     Threshold (ethr) on eigenvalues was too large:
     Diagonalizing with lowered threshold

     Davidson diagonalization with overlap
     ethr =  1.79E-08,  avg # of iterations =  3.0

     total cpu time spent up to now is      918.9 secs

     total energy              =    -278.66623026 Ry
     estimated scf accuracy    <       0.00001322 Ry

     iteration #  2     ecut=    90.00 Ry     beta= 0.70
     Davidson diagonalization with overlap
     ethr =  2.07E-08,  avg # of iterations =  3.0

     total cpu time spent up to now is      928.8 secs

     total energy              =    -278.66623221 Ry
     estimated scf accuracy    <       0.00000651 Ry

     iteration #  3     ecut=    90.00 Ry     beta= 0.70
     Davidson diagonalization with overlap
     ethr =  1.02E-08,  avg # of iterations =  3.0

     total cpu time spent up to now is      938.4 secs

     total energy              =    -278.66623395 Ry
     estimated scf accuracy    <       0.00000025 Ry

     iteration #  4     ecut=    90.00 Ry     beta= 0.70
     Davidson diagonalization with overlap
     ethr =  3.90E-10,  avg # of iterations =  2.7

     total cpu time spent up to now is      946.4 secs

     total energy              =    -278.66623395 Ry
     estimated scf accuracy    <       0.00000009 Ry

     iteration #  5     ecut=    90.00 Ry     beta= 0.70
     Davidson diagonalization with overlap
     ethr =  1.37E-10,  avg # of iterations =  3.2

     total cpu time spent up to now is      956.8 secs

     total energy              =    -278.66623399 Ry
     estimated scf accuracy    <       0.00000002 Ry

     iteration #  6     ecut=    90.00 Ry     beta= 0.70
     Davidson diagonalization with overlap
     ethr =  3.01E-11,  avg # of iterations =  2.1

     total cpu time spent up to now is      964.4 secs

     total energy              =    -278.66623399 Ry
     estimated scf accuracy    <          2.8E-09 Ry

     iteration #  7     ecut=    90.00 Ry     beta= 0.70
     Davidson diagonalization with overlap
     ethr =  4.37E-12,  avg # of iterations =  2.6

     total cpu time spent up to now is      973.1 secs

     End of self-consistent calculation

     Number of k-points >= 100: set verbosity='high' to print the bands.

     highest occupied level (ev):    -2.8002

!    total energy              =    -278.66623399 Ry
     estimated scf accuracy    <          1.3E-10 Ry

     The total energy is the sum of the following terms:
     one-electron contribution =    -217.37136208 Ry
     hartree contribution      =     131.73964278 Ry
     xc contribution           =     -70.93101833 Ry
     ewald contribution        =    -122.10349635 Ry

     convergence has been achieved in   7 iterations

     Forces acting on atoms (cartesian axes, Ry/au):

     atom    1 type  2   force =     0.00000000   -0.00042186    0.00038216
     atom    2 type  2   force =     0.00000000    0.00042193    0.00038202
     atom    3 type  2   force =     0.00000000   -0.00042186    0.00038216
     atom    4 type  2   force =     0.00000000    0.00042194    0.00038200
     atom    5 type  2   force =     0.00000000   -0.00121252   -0.00036256
     atom    6 type  2   force =     0.00000000    0.00121249   -0.00036258
     atom    7 type  2   force =     0.00000000   -0.00121252   -0.00036256
     atom    8 type  2   force =     0.00000000    0.00121249   -0.00036259
     atom    9 type  1   force =     0.00000000   -0.00004461   -0.00020122
     atom   10 type  1   force =     0.00000000    0.00004460   -0.00020113
     atom   11 type  1   force =     0.00000000   -0.00004460   -0.00020122
     atom   12 type  1   force =     0.00000000    0.00004460   -0.00020112
     atom   13 type  1   force =     0.00000000    0.00001402    0.00003875
     atom   14 type  1   force =     0.00000000   -0.00001409    0.00003878
     atom   15 type  1   force =     0.00000000    0.00001402    0.00003875
     atom   16 type  1   force =     0.00000000   -0.00001410    0.00003878
     atom   17 type  1   force =    -0.00000756   -0.00005086    0.00007144
     atom   18 type  1   force =     0.00000754    0.00005087    0.00007146
     atom   19 type  1   force =    -0.00000754    0.00005087    0.00007146
     atom   20 type  1   force =     0.00000756   -0.00005086    0.00007144
     atom   21 type  1   force =    -0.00000756   -0.00005086    0.00007144
     atom   22 type  1   force =     0.00000754    0.00005087    0.00007145
     atom   23 type  1   force =    -0.00000754    0.00005087    0.00007145
     atom   24 type  1   force =     0.00000756   -0.00005086    0.00007144

     Total force =     0.002818     Total SCF correction =     0.000016


     Computing stress (Cartesian axis) and pressure

          total   stress  (Ry/bohr**3)                   (kbar)     P=       47.00
   0.00031710   0.00000000   0.00000000           46.65        0.00        0.00
   0.00000000   0.00032585   0.00000000            0.00       47.93        0.00
   0.00000000   0.00000000   0.00031557            0.00        0.00       46.42

     Energy error            =      2.7E-05 Ry
     Gradient error          =      1.2E-03 Ry/Bohr

     number of scf cycles    =  11
     number of bfgs steps    =  10

     energy             old  =    -278.6662068057 Ry
     energy             new  =    -278.6662339874 Ry

     CASE: energy            _new < energy            _old

     new trust radius        =       0.0028446374 bohr
     new conv_thr            =       0.0000000010 Ry


ATOMIC_POSITIONS (crystal)
O                0.0000000000        0.6672822490        0.0582804661
O                0.0000000000        0.3327177537        0.5582804667
O                0.5000000000        0.1672822484        0.0582804662
O                0.5000000000        0.8327177569        0.5582804667
O                0.5000000000        0.8341099316        0.9343787689
O                0.5000000000        0.1658900672        0.4343787602
O                0.0000000000        0.3341099302        0.9343787697
O                0.0000000000        0.6658900692        0.4343787630
H                0.0000000000        0.6654640115        0.2045895692
H                0.0000000000        0.3345359922        0.7045895804
H                0.5000000000        0.1654640095        0.2045895693
H                0.5000000000        0.8345359960        0.7045895814
H                0.0000000000        0.5364897701        0.0131319443
H                0.0000000000        0.4635102234        0.5131319475
H                0.5000000000        0.0364897698        0.0131319432
H                0.5000000000        0.9635102254        0.5131319468
H                0.6919019301        0.7671802076        0.9838096319
H                0.3080980698        0.2328197907        0.4838096302
H                0.6919019302        0.2328197907        0.4838096302
H                0.3080980699        0.7671802076        0.9838096319
H                0.1919019303        0.2671802066        0.9838096339
H                0.8080980700        0.7328197932        0.4838096322
H                0.1919019300        0.7328197932        0.4838096322
H                0.8080980697        0.2671802066        0.9838096339



     Writing config-only to output data dir ./iceIh_vdw/iceIh_vdw.save/ :
     XML data file
     NEW-OLD atomic charge density approx. for the potential

     total cpu time spent up to now is      981.4 secs

     per-process dynamical memory:    53.2 Mb

     Self-consistent Calculation

     iteration #  1     ecut=    90.00 Ry     beta= 0.70
     Davidson diagonalization with overlap
     ethr =  1.00E-06,  avg # of iterations =  2.0

     Threshold (ethr) on eigenvalues was too large:
     Diagonalizing with lowered threshold

     Davidson diagonalization with overlap
     ethr =  6.15E-09,  avg # of iterations =  3.1

     total cpu time spent up to now is      999.5 secs

     total energy              =    -278.66624333 Ry
     estimated scf accuracy    <       0.00000484 Ry

     iteration #  2     ecut=    90.00 Ry     beta= 0.70
     Davidson diagonalization with overlap
     ethr =  7.56E-09,  avg # of iterations =  2.8

     total cpu time spent up to now is     1008.6 secs

     total energy              =    -278.66624415 Ry
     estimated scf accuracy    <       0.00000117 Ry

     iteration #  3     ecut=    90.00 Ry     beta= 0.70
     Davidson diagonalization with overlap
     ethr =  1.82E-09,  avg # of iterations =  3.0

     total cpu time spent up to now is     1018.3 secs

     total energy              =    -278.66624450 Ry
     estimated scf accuracy    <       0.00000017 Ry

     iteration #  4     ecut=    90.00 Ry     beta= 0.70
     Davidson diagonalization with overlap
     ethr =  2.62E-10,  avg # of iterations =  2.1

     total cpu time spent up to now is     1025.6 secs

     total energy              =    -278.66624452 Ry
     estimated scf accuracy    <       0.00000001 Ry

     iteration #  5     ecut=    90.00 Ry     beta= 0.70
     Davidson diagonalization with overlap
     ethr =  1.76E-11,  avg # of iterations =  4.9

     total cpu time spent up to now is     1037.7 secs

     total energy              =    -278.66624452 Ry
     estimated scf accuracy    <       0.00000001 Ry

     iteration #  6     ecut=    90.00 Ry     beta= 0.70
     Davidson diagonalization with overlap
     ethr =  1.76E-11,  avg # of iterations =  2.9

     total cpu time spent up to now is     1046.0 secs

     End of self-consistent calculation

     Number of k-points >= 100: set verbosity='high' to print the bands.

     highest occupied level (ev):    -2.8007

!    total energy              =    -278.66624452 Ry
     estimated scf accuracy    <          6.1E-10 Ry

     The total energy is the sum of the following terms:
     one-electron contribution =    -217.37720447 Ry
     hartree contribution      =     131.74217277 Ry
     xc contribution           =     -70.93169684 Ry
     ewald contribution        =    -122.09951599 Ry

     convergence has been achieved in   6 iterations

     Forces acting on atoms (cartesian axes, Ry/au):

     atom    1 type  2   force =     0.00000000   -0.00061968    0.00030149
     atom    2 type  2   force =     0.00000000    0.00061959    0.00030162
     atom    3 type  2   force =     0.00000000   -0.00061968    0.00030149
     atom    4 type  2   force =     0.00000000    0.00061958    0.00030163
     atom    5 type  2   force =     0.00000000   -0.00074173   -0.00030947
     atom    6 type  2   force =     0.00000000    0.00074176   -0.00030944
     atom    7 type  2   force =     0.00000000   -0.00074173   -0.00030947
     atom    8 type  2   force =     0.00000000    0.00074176   -0.00030944
     atom    9 type  1   force =     0.00000000    0.00013261    0.00013149
     atom   10 type  1   force =     0.00000000   -0.00013261    0.00013140
     atom   11 type  1   force =     0.00000000    0.00013261    0.00013149
     atom   12 type  1   force =     0.00000000   -0.00013261    0.00013139
     atom   13 type  1   force =     0.00000000   -0.00024545   -0.00017130
     atom   14 type  1   force =     0.00000000    0.00024553   -0.00017133
     atom   15 type  1   force =     0.00000000   -0.00024544   -0.00017130
     atom   16 type  1   force =     0.00000000    0.00024553   -0.00017133
     atom   17 type  1   force =    -0.00024989   -0.00010328    0.00002389
     atom   18 type  1   force =     0.00024991    0.00010327    0.00002388
     atom   19 type  1   force =    -0.00024991    0.00010327    0.00002388
     atom   20 type  1   force =     0.00024989   -0.00010328    0.00002389
     atom   21 type  1   force =    -0.00024989   -0.00010328    0.00002389
     atom   22 type  1   force =     0.00024991    0.00010327    0.00002388
     atom   23 type  1   force =    -0.00024991    0.00010327    0.00002388
     atom   24 type  1   force =     0.00024989   -0.00010328    0.00002389

     Total force =     0.002360     Total SCF correction =     0.000028


     Computing stress (Cartesian axis) and pressure

          total   stress  (Ry/bohr**3)                   (kbar)     P=       47.08
   0.00031802   0.00000000   0.00000000           46.78        0.00        0.00
   0.00000000   0.00032497  -0.00000000            0.00       47.81       -0.00
   0.00000000  -0.00000000   0.00031710            0.00       -0.00       46.65

     Energy error            =      1.1E-05 Ry
     Gradient error          =      7.4E-04 Ry/Bohr

     bfgs converged in  12 scf cycles and  11 bfgs steps
     (criteria: energy <  1.0E-04 Ry, force <  1.0E-03 Ry/Bohr)

     End of BFGS Geometry Optimization

     Final energy             =    -278.6662445224 Ry

     File ./iceIh_vdw/iceIh_vdw.bfgs deleted, as requested
Begin final coordinates

ATOMIC_POSITIONS (crystal)
O                0.0000000000        0.6672822490        0.0582804661
O                0.0000000000        0.3327177537        0.5582804667
O                0.5000000000        0.1672822484        0.0582804662
O                0.5000000000        0.8327177569        0.5582804667
O                0.5000000000        0.8341099316        0.9343787689
O                0.5000000000        0.1658900672        0.4343787602
O                0.0000000000        0.3341099302        0.9343787697
O                0.0000000000        0.6658900692        0.4343787630
H                0.0000000000        0.6654640115        0.2045895692
H                0.0000000000        0.3345359922        0.7045895804
H                0.5000000000        0.1654640095        0.2045895693
H                0.5000000000        0.8345359960        0.7045895814
H                0.0000000000        0.5364897701        0.0131319443
H                0.0000000000        0.4635102234        0.5131319475
H                0.5000000000        0.0364897698        0.0131319432
H                0.5000000000        0.9635102254        0.5131319468
H                0.6919019301        0.7671802076        0.9838096319
H                0.3080980698        0.2328197907        0.4838096302
H                0.6919019302        0.2328197907        0.4838096302
H                0.3080980699        0.7671802076        0.9838096319
H                0.1919019303        0.2671802066        0.9838096339
H                0.8080980700        0.7328197932        0.4838096322
H                0.1919019300        0.7328197932        0.4838096322
H                0.8080980697        0.2671802066        0.9838096339
End final coordinates



     Writing all to output data dir ./iceIh_vdw/iceIh_vdw.save/ :
     XML data file, charge density, pseudopotentials, collected wavefunctions

     init_run     :      5.73s CPU      5.81s WALL (       1 calls)
     electrons    :    932.90s CPU    949.30s WALL (      12 calls)
     update_pot   :      0.67s CPU      0.75s WALL (      11 calls)
     forces       :      6.33s CPU      6.36s WALL (      12 calls)
     stress       :     88.67s CPU     88.80s WALL (      12 calls)

     Called by init_run:
     wfcinit      :      3.73s CPU      3.75s WALL (       1 calls)
     potinit      :      1.59s CPU      1.61s WALL (       1 calls)
     hinit0       :      0.35s CPU      0.36s WALL (       1 calls)

     Called by electrons:
     c_bands      :    829.79s CPU    843.58s WALL (      96 calls)
     sum_band     :     97.40s CPU     98.32s WALL (      96 calls)
     v_of_rho     :      7.38s CPU      8.06s WALL (     102 calls)
     newd         :      0.19s CPU      0.23s WALL (     102 calls)
     mix_rho      :      0.15s CPU      0.15s WALL (      96 calls)
     vdW_kernel   :      1.52s CPU      1.52s WALL (       1 calls)

     Called by c_bands:
     init_us_2    :     10.83s CPU     11.20s WALL (   24955 calls)
     cegterg      :    802.11s CPU    809.83s WALL (   11040 calls)

     Called by *egterg:
     cdiaghg      :     74.63s CPU     74.97s WALL (   42722 calls)
     h_psi        :    604.23s CPU    611.02s WALL (   44792 calls)
     s_psi        :     22.48s CPU     22.65s WALL (   44792 calls)
     g_psi        :      1.99s CPU      2.00s WALL (   33637 calls)

     Called by h_psi:
     h_psi:calbec :     35.99s CPU     36.30s WALL (   44792 calls)
     vloc_psi     :    540.59s CPU    546.78s WALL (   44792 calls)
     add_vuspsi   :     23.97s CPU     24.18s WALL (   44792 calls)

     General routines
     calbec       :     49.81s CPU     50.24s WALL (   62732 calls)
     fft          :      3.51s CPU      3.58s WALL (    6863 calls)
     ffts         :      0.04s CPU      0.04s WALL (      96 calls)
     fftw         :    565.30s CPU    571.52s WALL ( 2630074 calls)

     Parallel routines

     PWSCF        :  17m18.27s CPU  17m43.80s WALL


   This run was terminated on:  18: 7:20   1Apr2026            

=------------------------------------------------------------------------------=
   JOB DONE.
=------------------------------------------------------------------------------=
