
     Program PWSCF v.7.3.1 starts on  1Apr2026 at 18: 7:22 

     This program is part of the open-source Quantum ESPRESSO suite
     for quantum simulation of materials; please cite
         "P. Giannozzi et al., J. Phys.:Condens. Matter 21 395502 (2009);
         "P. Giannozzi et al., J. Phys.:Condens. Matter 29 465901 (2017);
         "P. Giannozzi et al., J. Chem. Phys. 152 154105 (2020);
          URL http://www.quantum-espresso.org", 
     in publications or presentations arising from this work. More details at
     http://www.quantum-espresso.org/quote

     Parallel version (MPI), running on   128 processors

     MPI processes distributed on     1 nodes
     237817 MiB available memory on the printing compute node when the environment starts

     Waiting for input...
     Reading input from standard input

     Current dimensions of program PWSCF are:
     Max number of different atomic species (ntypx) = 10
     Max number of k-points (npk) =  40000
     Max angular momentum in pseudopotentials (lmaxx) =  4

     IMPORTANT: XC functional enforced from input :
     Exchange-correlation= VDW-DF2
                           (   1   4  13   0   2   0   0)
     Any further DFT definition will be discarded
     Please, verify this is what you really want

     Found identity + ( -0.5000 -0.5000  0.0000) symmetry
     This is a supercell, fractional translations are disabled

     K-points division:     npool     =       4
     R & G space division:  proc/nbgrp/npool/nimage =      32
     Subspace diagonalization in iterative solution of the eigenvalue problem:
     a serial algorithm will be used


     Parallelization info
     --------------------
     sticks:   dense  smooth     PW     G-vecs:    dense   smooth      PW
     Min          99      99     27                 5249     5249     765
     Max         100     100     28                 5254     5254     770
     Sum        3195    3195    885               168081   168081   24529

     Using Slab Decomposition



     bravais-lattice index     =            8
     lattice parameter (alat)  =       8.0226  a.u.
     unit-cell volume          =    1455.8136 (a.u.)^3
     number of atoms/cell      =           24
     number of atomic types    =            2
     number of electrons       =        64.00
     number of Kohn-Sham states=           32
     kinetic-energy cutoff     =      90.0000  Ry
     charge density cutoff     =     360.0000  Ry
     scf convergence threshold =      1.0E-07
     mixing beta               =       0.7000
     number of iterations used =            8  plain     mixing
     energy convergence thresh.=      1.0E-04
     force convergence thresh. =      1.0E-03
     Exchange-correlation= VDW-DF2
                           (   1   4  13   0   2   0   0)
     nstep                     =           50


     celldm(1)=   8.022616  celldm(2)=   1.732119  celldm(3)=   1.627721
     celldm(4)=   0.000000  celldm(5)=   0.000000  celldm(6)=   0.000000

     crystal axes: (cart. coord. in units of alat)
               a(1) = (   1.000000   0.000000   0.000000 )  
               a(2) = (   0.000000   1.732119   0.000000 )  
               a(3) = (   0.000000   0.000000   1.627721 )  

     reciprocal axes: (cart. coord. in units 2 pi/alat)
               b(1) = (  1.000000  0.000000  0.000000 )  
               b(2) = (  0.000000  0.577328  0.000000 )  
               b(3) = (  0.000000  0.000000  0.614356 )  


     PseudoPot. # 1 for H  read from file:
     ./H.pbe-van_ak.UPF
     MD5 check sum: 077eb6d537518a38cb46c6de387227b7
     Pseudo is Ultrasoft, Zval =  1.0
     Generated by new atomic code, or converted to UPF format
     Using radial grid of  615 points,  1 beta functions with: 
                l(1) =   0
     Q(r) pseudized with  8 coefficients,  rinner =    0.800

     PseudoPot. # 2 for O  read from file:
     ./O.pbe-van_ak.UPF
     MD5 check sum: 78c19812648e8988a0fe644b0f25305e
     Pseudo is Ultrasoft, Zval =  6.0
     Generated by new atomic code, or converted to UPF format
     Using radial grid of  737 points,  4 beta functions with: 
                l(1) =   0
                l(2) =   0
                l(3) =   1
                l(4) =   1
     Q(r) pseudized with  8 coefficients,  rinner =    0.800   0.800   0.800


     atomic species   valence    mass     pseudopotential
     H                 1.00     1.00800     H ( 1.00)
     O                 6.00    16.00000     O ( 1.00)

      2 Sym. Ops. (no inversion) found



   Cartesian axes

     site n.     atom                  positions (alat units)
         1        O      tau(   1) = (   0.0000000   1.1515127   0.1027092  )
         2        O      tau(   2) = (   0.0000000   0.5806063   0.9165697  )
         3        O      tau(   3) = (   0.5000000   0.2854532   0.1027092  )
         4        O      tau(   4) = (   0.5000000   1.4466659   0.9165697  )
         5        O      tau(   5) = (   0.5000000   1.4298643   1.5250118  )
         6        O      tau(   6) = (   0.5000000   0.3022548   0.7111513  )
         7        O      tau(   7) = (   0.0000000   0.5638048   1.5250118  )
         8        O      tau(   8) = (   0.0000000   1.1683143   0.7111513  )
         9        H      tau(   9) = (   0.0000000   1.1494343   0.3195216  )
        10        H      tau(  10) = (   0.0000000   0.5826848   1.1333822  )
        11        H      tau(  11) = (   0.5000000   0.2833747   0.3195216  )
        12        H      tau(  12) = (   0.5000000   1.4487443   1.1333822  )
        13        H      tau(  13) = (   0.0000000   0.9289355   0.0297873  )
        14        H      tau(  14) = (   0.0000000   0.8031836   0.8436478  )
        15        H      tau(  15) = (   0.5000000   0.0628759   0.0297873  )
        16        H      tau(  16) = (   0.5000000   1.6692431   0.8436478  )
        17        H      tau(  17) = (   0.6766000   1.3420459   1.5979337  )
        18        H      tau(  18) = (   0.3234000   0.3900732   0.7840732  )
        19        H      tau(  19) = (   0.6766000   0.3900732   0.7840732  )
        20        H      tau(  20) = (   0.3234000   1.3420459   1.5979337  )
        21        H      tau(  21) = (   0.1766000   0.4759863   1.5979337  )
        22        H      tau(  22) = (   0.8234000   1.2561327   0.7840732  )
        23        H      tau(  23) = (   0.1766000   1.2561327   0.7840732  )
        24        H      tau(  24) = (   0.8234000   0.4759863   1.5979337  )

     number of k points=   460

     Number of k-points >= 100: set verbosity='high' to print them.

     Dense  grid:   168081 G-vectors     FFT dimensions: (  50,  90,  80)

     Estimated max dynamical RAM per process >      44.19 MB

     Estimated total dynamical RAM >       5.40 GB

     Initial potential from superposition of free atoms

     starting charge      63.9998, renormalised to      64.0000


     %%%%%%%%%%%%%%%%%%%%%%%%%%%%%%%%%%%%%%%%%%%%%%%%%%%%%%%%%%%%%%%%%%%%%%%%
     %                                                                      %
     % You are using vdW-DF, which was implemented by the Thonhauser group. %
     % Please cite the following two papers that made this development      %
     % possible and the two reviews that describe the various versions:     %
     %                                                                      %
     %   T. Thonhauser et al., PRL 115, 136402 (2015).                      %
     %   T. Thonhauser et al., PRB 76, 125112 (2007).                       %
     %   K. Berland et al., Rep. Prog. Phys. 78, 066501 (2015).             %
     %   D.C. Langreth et al., J. Phys.: Condens. Matter 21, 084203 (2009). %
     %                                                                      %
     % If you are calculating stress with vdW-DF, please also cite:         %
     %                                                                      %
     %   R. Sabatini et al., J. Phys.: Condens. Matter 24, 424209 (2012).   %
     %                                                                      %
     %%%%%%%%%%%%%%%%%%%%%%%%%%%%%%%%%%%%%%%%%%%%%%%%%%%%%%%%%%%%%%%%%%%%%%%%

     %%%%%%%%%%%%%%%%%%%%%%%%%%%%%%%%%%%%%%%%%%%%%%%%%%%%%%%%%%%%%%%%%%%%%%%%
     %                                                                      %
     %  vdW-DF NEWS:                                                        %
     %                                                                      %
     %  * vdW-DF3 is now available. DOI: 10.1021/acs.jctc.0c00471           %
     %    use with input_dft = 'vdW-DF3-opt1' or 'vdW-DF3-opt2'             %
     %                                                                      %
     %  * Unscreened and range-separated hybrid vdW-DF-cx functionals       %
     %    DOI: 10.1063/1.4986522 and 10.1088/1361-648X/ac2ad2               %
     %    use with input_dft = 'vdW-DF-cx0'    and 'vdW-DF-ahcx'            %
     %  * Unscreened and range-separated hybrid vdW-DF2-b86r functionals    %
     %    DOI: 10.1063/1.4986522 and DOI: 10.1103/PhysRevX.12.041003        %
     %    use with input_dft = 'vdW-DF2-br0' and 'vdW-DF2-ahbr'             %
     %                                                                      %
     %%%%%%%%%%%%%%%%%%%%%%%%%%%%%%%%%%%%%%%%%%%%%%%%%%%%%%%%%%%%%%%%%%%%%%%%


     Starting wfcs are   48 randomized atomic wfcs

     total cpu time spent up to now is        6.1 secs

     per-process dynamical memory:    51.5 Mb

     Self-consistent Calculation

     iteration #  1     ecut=    90.00 Ry     beta= 0.70
     Davidson diagonalization with overlap
     ethr =  1.00E-02,  avg # of iterations =  2.0

     total cpu time spent up to now is       14.4 secs

     total energy              =    -276.91053483 Ry
     estimated scf accuracy    <       3.69397709 Ry

     iteration #  2     ecut=    90.00 Ry     beta= 0.70
     Davidson diagonalization with overlap
     ethr =  5.77E-03,  avg # of iterations =  3.0

     total cpu time spent up to now is       25.5 secs

     total energy              =    -278.11342000 Ry
     estimated scf accuracy    <       1.98231654 Ry

     iteration #  3     ecut=    90.00 Ry     beta= 0.70
     Davidson diagonalization with overlap
     ethr =  3.10E-03,  avg # of iterations =  2.0

     total cpu time spent up to now is       33.7 secs

     total energy              =    -278.39696954 Ry
     estimated scf accuracy    <       0.06801050 Ry

     iteration #  4     ecut=    90.00 Ry     beta= 0.70
     Davidson diagonalization with overlap
     ethr =  1.06E-04,  avg # of iterations =  4.0

     total cpu time spent up to now is       46.3 secs

     total energy              =    -278.44884316 Ry
     estimated scf accuracy    <       0.08925677 Ry

     iteration #  5     ecut=    90.00 Ry     beta= 0.70
     Davidson diagonalization with overlap
     ethr =  1.06E-04,  avg # of iterations =  2.0

     total cpu time spent up to now is       54.0 secs

     total energy              =    -278.45113309 Ry
     estimated scf accuracy    <       0.01124712 Ry

     iteration #  6     ecut=    90.00 Ry     beta= 0.70
     Davidson diagonalization with overlap
     ethr =  1.76E-05,  avg # of iterations =  2.0

     total cpu time spent up to now is       62.9 secs

     total energy              =    -278.45451252 Ry
     estimated scf accuracy    <       0.00007448 Ry

     iteration #  7     ecut=    90.00 Ry     beta= 0.70
     Davidson diagonalization with overlap
     ethr =  1.16E-07,  avg # of iterations =  6.6

     total cpu time spent up to now is       79.6 secs

     total energy              =    -278.45478553 Ry
     estimated scf accuracy    <       0.00208847 Ry

     iteration #  8     ecut=    90.00 Ry     beta= 0.70
     Davidson diagonalization with overlap
     ethr =  1.16E-07,  avg # of iterations =  3.1

     total cpu time spent up to now is       90.8 secs

     total energy              =    -278.45459845 Ry
     estimated scf accuracy    <       0.00071039 Ry

     iteration #  9     ecut=    90.00 Ry     beta= 0.70
     Davidson diagonalization with overlap
     ethr =  1.16E-07,  avg # of iterations =  3.0

     total cpu time spent up to now is      101.8 secs

     total energy              =    -278.45465243 Ry
     estimated scf accuracy    <       0.00006407 Ry

     iteration # 10     ecut=    90.00 Ry     beta= 0.70
     Davidson diagonalization with overlap
     ethr =  1.00E-07,  avg # of iterations =  2.0

     total cpu time spent up to now is      109.7 secs

     total energy              =    -278.45465495 Ry
     estimated scf accuracy    <       0.00000909 Ry

     iteration # 11     ecut=    90.00 Ry     beta= 0.70
     Davidson diagonalization with overlap
     ethr =  1.42E-08,  avg # of iterations =  2.0

     total cpu time spent up to now is      117.8 secs

     total energy              =    -278.45465583 Ry
     estimated scf accuracy    <       0.00000066 Ry

     iteration # 12     ecut=    90.00 Ry     beta= 0.70
     Davidson diagonalization with overlap
     ethr =  1.03E-09,  avg # of iterations =  4.0

     total cpu time spent up to now is      129.6 secs

     total energy              =    -278.45465624 Ry
     estimated scf accuracy    <       0.00000069 Ry

     iteration # 13     ecut=    90.00 Ry     beta= 0.70
     Davidson diagonalization with overlap
     ethr =  1.03E-09,  avg # of iterations =  2.0

     total cpu time spent up to now is      137.8 secs

     End of self-consistent calculation

     Number of k-points >= 100: set verbosity='high' to print the bands.

     highest occupied level (ev):    -3.0379

!    total energy              =    -278.45465631 Ry
     estimated scf accuracy    <       0.00000004 Ry

     The total energy is the sum of the following terms:
     one-electron contribution =    -228.19429352 Ry
     hartree contribution      =     136.46106880 Ry
     xc contribution           =     -71.89692668 Ry
     ewald contribution        =    -114.82450492 Ry

     convergence has been achieved in  13 iterations

     Forces acting on atoms (cartesian axes, Ry/au):

     atom    1 type  2   force =     0.00000000   -0.00059824   -0.14864993
     atom    2 type  2   force =     0.00000000    0.00059815   -0.14864913
     atom    3 type  2   force =     0.00000000   -0.00059830   -0.14864995
     atom    4 type  2   force =     0.00000000    0.00059824   -0.14864919
     atom    5 type  2   force =     0.00000000    0.21568011   -0.16282103
     atom    6 type  2   force =     0.00000000   -0.21567974   -0.16282078
     atom    7 type  2   force =     0.00000000    0.21568026   -0.16282116
     atom    8 type  2   force =     0.00000000   -0.21567996   -0.16282097
     atom    9 type  1   force =     0.00000000    0.00006907    0.14668820
     atom   10 type  1   force =     0.00000000   -0.00006912    0.14668713
     atom   11 type  1   force =     0.00000000    0.00006906    0.14668821
     atom   12 type  1   force =     0.00000000   -0.00006911    0.14668712
     atom   13 type  1   force =     0.00000000   -0.00214552   -0.00431859
     atom   14 type  1   force =     0.00000000    0.00214554   -0.00431866
     atom   15 type  1   force =     0.00000000   -0.00214552   -0.00431858
     atom   16 type  1   force =     0.00000000    0.00214559   -0.00431867
     atom   17 type  1   force =     0.18608952   -0.10801767    0.08455078
     atom   18 type  1   force =    -0.18608942    0.10801755    0.08455074
     atom   19 type  1   force =     0.18608942    0.10801755    0.08455074
     atom   20 type  1   force =    -0.18608952   -0.10801767    0.08455078
     atom   21 type  1   force =     0.18608953   -0.10801766    0.08455077
     atom   22 type  1   force =    -0.18608938    0.10801752    0.08455070
     atom   23 type  1   force =     0.18608938    0.10801752    0.08455070
     atom   24 type  1   force =    -0.18608953   -0.10801766    0.08455077

     Total force =     0.945638     Total SCF correction =     0.000126


     Computing stress (Cartesian axis) and pressure

          total   stress  (Ry/bohr**3)                   (kbar)     P=      194.67
   0.00184344   0.00000000   0.00000000          271.18        0.00        0.00
   0.00000000   0.00072866   0.00000000            0.00      107.19        0.00
   0.00000000   0.00000000   0.00139793            0.00        0.00      205.64


     BFGS Geometry Optimization
     Energy error            =      0.0E+00 Ry
     Gradient error          =      2.2E-01 Ry/Bohr

     number of scf cycles    =   1
     number of bfgs steps    =   0

     energy             new  =    -278.4546563113 Ry

     new trust radius        =       0.2702382422 bohr
     new conv_thr            =       0.0000001000 Ry


ATOMIC_POSITIONS (crystal)
O                0.0000000000        0.6647569374        0.0517166891
O                0.0000000000        0.3352430566        0.5517167274
O                0.5000000000        0.1647569329        0.0517166877
O                0.5000000000        0.8352430630        0.5517167224
O                0.5000000000        0.8410208911        0.9244315115
O                0.5000000000        0.1589791357        0.4244315004
O                0.0000000000        0.3410209019        0.9244315011
O                0.0000000000        0.6589791197        0.4244314857
H                0.0000000000        0.6636049985        0.2075330887
H                0.0000000000        0.3363949978        0.7075330368
H                0.5000000000        0.1636049979        0.2075330892
H                0.5000000000        0.8363949987        0.7075330363
H                0.0000000000        0.5361456068        0.0179692916
H                0.0000000000        0.4638543945        0.5179692824
H                0.5000000000        0.0361456070        0.0179692926
H                0.5000000000        0.9638543979        0.5179692821
H                0.6997955940        0.7670267816        0.9881747327
H                0.3002044183        0.2329732099        0.4881747292
H                0.6997955817        0.2329732099        0.4881747292
H                0.3002044060        0.7670267816        0.9881747327
H                0.1997955952        0.2670267823        0.9881747320
H                0.8002044235        0.7329732075        0.4881747267
H                0.1997955765        0.7329732075        0.4881747267
H                0.8002044048        0.2670267823        0.9881747320



     Writing config-only to output data dir ./iceIh_vdw/iceIh_vdw.save/ :
     XML data file
     NEW-OLD atomic charge density approx. for the potential

     total cpu time spent up to now is      146.2 secs

     per-process dynamical memory:    51.7 Mb

     Self-consistent Calculation

     iteration #  1     ecut=    90.00 Ry     beta= 0.70
     Davidson diagonalization with overlap
     ethr =  1.00E-06,  avg # of iterations = 12.0

     total cpu time spent up to now is      176.3 secs

     total energy              =    -278.50609484 Ry
     estimated scf accuracy    <       0.22090350 Ry

     iteration #  2     ecut=    90.00 Ry     beta= 0.70
     Davidson diagonalization with overlap
     ethr =  3.45E-04,  avg # of iterations =  3.0

     total cpu time spent up to now is      186.3 secs

     total energy              =    -278.55859191 Ry
     estimated scf accuracy    <       0.06968110 Ry

     iteration #  3     ecut=    90.00 Ry     beta= 0.70
     Davidson diagonalization with overlap
     ethr =  1.09E-04,  avg # of iterations =  2.6

     total cpu time spent up to now is      195.1 secs

     total energy              =    -278.57360562 Ry
     estimated scf accuracy    <       0.00241094 Ry

     iteration #  4     ecut=    90.00 Ry     beta= 0.70
     Davidson diagonalization with overlap
     ethr =  3.77E-06,  avg # of iterations =  3.0

     total cpu time spent up to now is      205.1 secs

     total energy              =    -278.57437714 Ry
     estimated scf accuracy    <       0.00065722 Ry

     iteration #  5     ecut=    90.00 Ry     beta= 0.70
     Davidson diagonalization with overlap
     ethr =  1.03E-06,  avg # of iterations =  2.0

     total cpu time spent up to now is      213.5 secs

     total energy              =    -278.57447837 Ry
     estimated scf accuracy    <       0.00007092 Ry

     iteration #  6     ecut=    90.00 Ry     beta= 0.70
     Davidson diagonalization with overlap
     ethr =  1.11E-07,  avg # of iterations =  4.0

     total cpu time spent up to now is      225.0 secs

     total energy              =    -278.57449778 Ry
     estimated scf accuracy    <       0.00003743 Ry

     iteration #  7     ecut=    90.00 Ry     beta= 0.70
     Davidson diagonalization with overlap
     ethr =  5.85E-08,  avg # of iterations =  2.6

     total cpu time spent up to now is      234.3 secs

     total energy              =    -278.57450751 Ry
     estimated scf accuracy    <       0.00000063 Ry

     iteration #  8     ecut=    90.00 Ry     beta= 0.70
     Davidson diagonalization with overlap
     ethr =  9.89E-10,  avg # of iterations =  4.7

     total cpu time spent up to now is      247.1 secs

     total energy              =    -278.57450763 Ry
     estimated scf accuracy    <       0.00000161 Ry

     iteration #  9     ecut=    90.00 Ry     beta= 0.70
     Davidson diagonalization with overlap
     ethr =  9.89E-10,  avg # of iterations =  2.7

     total cpu time spent up to now is      256.1 secs

     total energy              =    -278.57450765 Ry
     estimated scf accuracy    <       0.00000024 Ry

     iteration # 10     ecut=    90.00 Ry     beta= 0.70
     Davidson diagonalization with overlap
     ethr =  3.79E-10,  avg # of iterations =  3.1

     total cpu time spent up to now is      265.9 secs

     End of self-consistent calculation

     Number of k-points >= 100: set verbosity='high' to print the bands.

     highest occupied level (ev):    -2.6265

!    total energy              =    -278.57450773 Ry
     estimated scf accuracy    <          4.0E-09 Ry

     The total energy is the sum of the following terms:
     one-electron contribution =    -213.65599155 Ry
     hartree contribution      =     130.01305414 Ry
     xc contribution           =     -70.41893398 Ry
     ewald contribution        =    -124.51263634 Ry

     convergence has been achieved in  10 iterations

     Forces acting on atoms (cartesian axes, Ry/au):

     atom    1 type  2   force =     0.00000000    0.06450252    0.08053025
     atom    2 type  2   force =     0.00000000   -0.06450225    0.08052968
     atom    3 type  2   force =     0.00000000    0.06450259    0.08053029
     atom    4 type  2   force =     0.00000000   -0.06450232    0.08052972
     atom    5 type  2   force =     0.00000000   -0.09406861    0.07647589
     atom    6 type  2   force =     0.00000000    0.09406842    0.07647581
     atom    7 type  2   force =     0.00000000   -0.09406868    0.07647596
     atom    8 type  2   force =     0.00000000    0.09406851    0.07647590
     atom    9 type  1   force =     0.00000000    0.00918818   -0.03910702
     atom   10 type  1   force =     0.00000000   -0.00918815   -0.03910660
     atom   11 type  1   force =     0.00000000    0.00918818   -0.03910703
     atom   12 type  1   force =     0.00000000   -0.00918814   -0.03910662
     atom   13 type  1   force =     0.00000000   -0.04856426   -0.03180862
     atom   14 type  1   force =     0.00000000    0.04856401   -0.03180853
     atom   15 type  1   force =     0.00000000   -0.04856433   -0.03180863
     atom   16 type  1   force =     0.00000000    0.04856407   -0.03180854
     atom   17 type  1   force =    -0.04781725    0.03533365   -0.04304524
     atom   18 type  1   force =     0.04781720   -0.03533358   -0.04304521
     atom   19 type  1   force =    -0.04781720   -0.03533358   -0.04304521
     atom   20 type  1   force =     0.04781725    0.03533365   -0.04304524
     atom   21 type  1   force =    -0.04781727    0.03533367   -0.04304526
     atom   22 type  1   force =     0.04781721   -0.03533362   -0.04304524
     atom   23 type  1   force =    -0.04781721   -0.03533362   -0.04304524
     atom   24 type  1   force =     0.04781727    0.03533367   -0.04304526

     Total force =     0.405477     Total SCF correction =     0.000068


     Computing stress (Cartesian axis) and pressure

          total   stress  (Ry/bohr**3)                   (kbar)     P=       -7.26
  -0.00034207   0.00000000   0.00000000          -50.32        0.00        0.00
   0.00000000   0.00037779   0.00000000            0.00       55.58        0.00
   0.00000000   0.00000000  -0.00018376            0.00        0.00      -27.03

     Energy error            =      1.2E-01 Ry
     Gradient error          =      9.4E-02 Ry/Bohr

     number of scf cycles    =   2
     number of bfgs steps    =   1

     energy             old  =    -278.4546563113 Ry
     energy             new  =    -278.5745077269 Ry

     CASE: energy            _new < energy            _old

     new trust radius        =       0.0817899107 bohr
     new conv_thr            =       0.0000000941 Ry


ATOMIC_POSITIONS (crystal)
O                0.0000000000        0.6681414119        0.0559349552
O                0.0000000000        0.3318585962        0.5559349633
O                0.5000000000        0.1681414109        0.0559349559
O                0.5000000000        0.8318585991        0.5559349605
O                0.5000000000        0.8364647646        0.9283966731
O                0.5000000000        0.1635352530        0.4283966583
O                0.0000000000        0.3364647722        0.9283966666
O                0.0000000000        0.6635352414        0.4283966484
H                0.0000000000        0.6640873788        0.2056247519
H                0.0000000000        0.3359126190        0.7056247217
H                0.5000000000        0.1640873781        0.2056247521
H                0.5000000000        0.8359126202        0.7056247202
H                0.0000000000        0.5335928311        0.0161845558
H                0.0000000000        0.4664071575        0.5161845510
H                0.5000000000        0.0335928277        0.0161845560
H                0.5000000000        0.9664071638        0.5161845502
H                0.6960181120        0.7686904006        0.9859295558
H                0.3039818958        0.2313095941        0.4859295540
H                0.6960181042        0.2313095941        0.4859295540
H                0.3039818880        0.7686904006        0.9859295558
H                0.1960181116        0.2686904028        0.9859295536
H                0.8039819020        0.7313095899        0.4859295495
H                0.1960180980        0.7313095899        0.4859295495
H                0.8039818884        0.2686904028        0.9859295536



     Writing config-only to output data dir ./iceIh_vdw/iceIh_vdw.save/ :
     XML data file
     NEW-OLD atomic charge density approx. for the potential

     total cpu time spent up to now is      274.2 secs

     per-process dynamical memory:    51.7 Mb

     Self-consistent Calculation

     iteration #  1     ecut=    90.00 Ry     beta= 0.70
     Davidson diagonalization with overlap
     ethr =  1.00E-06,  avg # of iterations =  9.0

     total cpu time spent up to now is      297.2 secs

     total energy              =    -278.64468906 Ry
     estimated scf accuracy    <       0.01606650 Ry

     iteration #  2     ecut=    90.00 Ry     beta= 0.70
     Davidson diagonalization with overlap
     ethr =  2.51E-05,  avg # of iterations =  3.0

     total cpu time spent up to now is      306.9 secs

     total energy              =    -278.64795699 Ry
     estimated scf accuracy    <       0.00394326 Ry

     iteration #  3     ecut=    90.00 Ry     beta= 0.70
     Davidson diagonalization with overlap
     ethr =  6.16E-06,  avg # of iterations =  3.2

     total cpu time spent up to now is      316.4 secs

     total energy              =    -278.64894963 Ry
     estimated scf accuracy    <       0.00036649 Ry

     iteration #  4     ecut=    90.00 Ry     beta= 0.70
     Davidson diagonalization with overlap
     ethr =  5.73E-07,  avg # of iterations =  2.8

     total cpu time spent up to now is      325.1 secs

     total energy              =    -278.64901950 Ry
     estimated scf accuracy    <       0.00001945 Ry

     iteration #  5     ecut=    90.00 Ry     beta= 0.70
     Davidson diagonalization with overlap
     ethr =  3.04E-08,  avg # of iterations =  3.4

     total cpu time spent up to now is      335.1 secs

     total energy              =    -278.64902679 Ry
     estimated scf accuracy    <       0.00000224 Ry

     iteration #  6     ecut=    90.00 Ry     beta= 0.70
     Davidson diagonalization with overlap
     ethr =  3.50E-09,  avg # of iterations =  2.2

     total cpu time spent up to now is      343.3 secs

     total energy              =    -278.64902697 Ry
     estimated scf accuracy    <       0.00000029 Ry

     iteration #  7     ecut=    90.00 Ry     beta= 0.70
     Davidson diagonalization with overlap
     ethr =  4.51E-10,  avg # of iterations =  3.4

     total cpu time spent up to now is      353.9 secs

     total energy              =    -278.64902707 Ry
     estimated scf accuracy    <       0.00000009 Ry

     iteration #  8     ecut=    90.00 Ry     beta= 0.70
     Davidson diagonalization with overlap
     ethr =  1.48E-10,  avg # of iterations =  2.3

     total cpu time spent up to now is      362.8 secs

     End of self-consistent calculation

     Number of k-points >= 100: set verbosity='high' to print the bands.

     highest occupied level (ev):    -2.7438

!    total energy              =    -278.64902709 Ry
     estimated scf accuracy    <          3.3E-09 Ry

     The total energy is the sum of the following terms:
     one-electron contribution =    -215.34649539 Ry
     hartree contribution      =     130.76932494 Ry
     xc contribution           =     -70.59468453 Ry
     ewald contribution        =    -123.47717212 Ry

     convergence has been achieved in   8 iterations

     Forces acting on atoms (cartesian axes, Ry/au):

     atom    1 type  2   force =     0.00000000   -0.02111759    0.02748841
     atom    2 type  2   force =     0.00000000    0.02111747    0.02748816
     atom    3 type  2   force =     0.00000000   -0.02111760    0.02748840
     atom    4 type  2   force =     0.00000000    0.02111748    0.02748817
     atom    5 type  2   force =     0.00000000   -0.03906730    0.04426171
     atom    6 type  2   force =     0.00000000    0.03906721    0.04426171
     atom    7 type  2   force =     0.00000000   -0.03906735    0.04426175
     atom    8 type  2   force =     0.00000000    0.03906726    0.04426176
     atom    9 type  1   force =     0.00000000    0.00927554   -0.02113427
     atom   10 type  1   force =     0.00000000   -0.00927550   -0.02113399
     atom   11 type  1   force =     0.00000000    0.00927554   -0.02113426
     atom   12 type  1   force =     0.00000000   -0.00927550   -0.02113400
     atom   13 type  1   force =     0.00000000    0.01969931   -0.00885199
     atom   14 type  1   force =     0.00000000   -0.01969923   -0.00885199
     atom   15 type  1   force =     0.00000000    0.01969933   -0.00885198
     atom   16 type  1   force =     0.00000000   -0.01969924   -0.00885198
     atom   17 type  1   force =    -0.02808668    0.01622796   -0.02088195
     atom   18 type  1   force =     0.02808665   -0.01622792   -0.02088194
     atom   19 type  1   force =    -0.02808665   -0.01622792   -0.02088194
     atom   20 type  1   force =     0.02808668    0.01622796   -0.02088195
     atom   21 type  1   force =    -0.02808670    0.01622798   -0.02088196
     atom   22 type  1   force =     0.02808665   -0.01622794   -0.02088196
     atom   23 type  1   force =    -0.02808665   -0.01622794   -0.02088196
     atom   24 type  1   force =     0.02808670    0.01622798   -0.02088196

     Total force =     0.186146     Total SCF correction =     0.000103


     Computing stress (Cartesian axis) and pressure

          total   stress  (Ry/bohr**3)                   (kbar)     P=        6.57
  -0.00003952   0.00000000   0.00000000           -5.81        0.00        0.00
   0.00000000   0.00006935   0.00000000            0.00       10.20        0.00
   0.00000000   0.00000000   0.00010422            0.00        0.00       15.33

     Energy error            =      7.5E-02 Ry
     Gradient error          =      4.4E-02 Ry/Bohr

     number of scf cycles    =   3
     number of bfgs steps    =   2

     energy             old  =    -278.5745077269 Ry
     energy             new  =    -278.6490270911 Ry

     CASE: energy            _new < energy            _old

     new trust radius        =       0.0942039351 bohr
     new conv_thr            =       0.0000000443 Ry


ATOMIC_POSITIONS (crystal)
O                0.0000000000        0.6661163134        0.0593931265
O                0.0000000000        0.3338836832        0.5593931044
O                0.5000000000        0.1661163109        0.0593931269
O                0.5000000000        0.8338836874        0.5593931030
O                0.5000000000        0.8319155043        0.9337450647
O                0.5000000000        0.1680845030        0.4337450493
O                0.0000000000        0.3319155063        0.9337450630
O                0.0000000000        0.6680844973        0.4337450450
H                0.0000000000        0.6651069719        0.2030400359
H                0.0000000000        0.3348930299        0.7030400388
H                0.5000000000        0.1651069715        0.2030400365
H                0.5000000000        0.8348930310        0.7030400358
H                0.0000000000        0.5355229387        0.0150654514
H                0.0000000000        0.4644770581        0.5150654467
H                0.5000000000        0.0355229366        0.0150654522
H                0.5000000000        0.9644770630        0.5150654465
H                0.6904563123        0.7705724991        0.9833781830
H                0.3095436896        0.2294275003        0.4833781819
H                0.6904563104        0.2294275003        0.4833781819
H                0.3095436877        0.7705724991        0.9833781830
H                0.1904563092        0.2705725033        0.9833781792
H                0.8095436958        0.7294274941        0.4833781757
H                0.1904563042        0.7294274941        0.4833781757
H                0.8095436908        0.2705725033        0.9833781792



     Writing config-only to output data dir ./iceIh_vdw/iceIh_vdw.save/ :
     XML data file
     NEW-OLD atomic charge density approx. for the potential

     total cpu time spent up to now is      371.1 secs

     per-process dynamical memory:    53.1 Mb

     Self-consistent Calculation

     iteration #  1     ecut=    90.00 Ry     beta= 0.70
     Davidson diagonalization with overlap
     ethr =  1.00E-06,  avg # of iterations =  9.0

     total cpu time spent up to now is      394.0 secs

     total energy              =    -278.65733363 Ry
     estimated scf accuracy    <       0.02162266 Ry

     iteration #  2     ecut=    90.00 Ry     beta= 0.70
     Davidson diagonalization with overlap
     ethr =  3.38E-05,  avg # of iterations =  3.0

     total cpu time spent up to now is      404.2 secs

     total energy              =    -278.66289872 Ry
     estimated scf accuracy    <       0.00730849 Ry

     iteration #  3     ecut=    90.00 Ry     beta= 0.70
     Davidson diagonalization with overlap
     ethr =  1.14E-05,  avg # of iterations =  2.0

     total cpu time spent up to now is      412.3 secs

     total energy              =    -278.66429531 Ry
     estimated scf accuracy    <       0.00023178 Ry

     iteration #  4     ecut=    90.00 Ry     beta= 0.70
     Davidson diagonalization with overlap
     ethr =  3.62E-07,  avg # of iterations =  3.0

     total cpu time spent up to now is      423.2 secs

     total energy              =    -278.66440746 Ry
     estimated scf accuracy    <       0.00014862 Ry

     iteration #  5     ecut=    90.00 Ry     beta= 0.70
     Davidson diagonalization with overlap
     ethr =  2.32E-07,  avg # of iterations =  2.0

     total cpu time spent up to now is      431.2 secs

     total energy              =    -278.66441986 Ry
     estimated scf accuracy    <       0.00002042 Ry

     iteration #  6     ecut=    90.00 Ry     beta= 0.70
     Davidson diagonalization with overlap
     ethr =  3.19E-08,  avg # of iterations =  3.0

     total cpu time spent up to now is      442.1 secs

     total energy              =    -278.66442641 Ry
     estimated scf accuracy    <       0.00001253 Ry

     iteration #  7     ecut=    90.00 Ry     beta= 0.70
     Davidson diagonalization with overlap
     ethr =  1.96E-08,  avg # of iterations =  2.0

     total cpu time spent up to now is      450.9 secs

     total energy              =    -278.66442869 Ry
     estimated scf accuracy    <       0.00000021 Ry

     iteration #  8     ecut=    90.00 Ry     beta= 0.70
     Davidson diagonalization with overlap
     ethr =  3.25E-10,  avg # of iterations =  4.3

     total cpu time spent up to now is      463.8 secs

     total energy              =    -278.66442891 Ry
     estimated scf accuracy    <       0.00000028 Ry

     iteration #  9     ecut=    90.00 Ry     beta= 0.70
     Davidson diagonalization with overlap
     ethr =  3.25E-10,  avg # of iterations =  2.0

     total cpu time spent up to now is      471.1 secs

     End of self-consistent calculation

     Number of k-points >= 100: set verbosity='high' to print the bands.

     highest occupied level (ev):    -2.8779

!    total energy              =    -278.66442890 Ry
     estimated scf accuracy    <       0.00000004 Ry

     The total energy is the sum of the following terms:
     one-electron contribution =    -219.83427826 Ry
     hartree contribution      =     132.76894311 Ry
     xc contribution           =     -71.05172241 Ry
     ewald contribution        =    -120.54737135 Ry

     convergence has been achieved in   9 iterations

     Forces acting on atoms (cartesian axes, Ry/au):

     atom    1 type  2   force =     0.00000000   -0.00295966   -0.01838142
     atom    2 type  2   force =     0.00000000    0.00295963   -0.01838107
     atom    3 type  2   force =     0.00000000   -0.00295964   -0.01838141
     atom    4 type  2   force =     0.00000000    0.00295963   -0.01838109
     atom    5 type  2   force =     0.00000000    0.03274839   -0.01754310
     atom    6 type  2   force =     0.00000000   -0.03274839   -0.01754303
     atom    7 type  2   force =     0.00000000    0.03274842   -0.01754312
     atom    8 type  2   force =     0.00000000   -0.03274842   -0.01754305
     atom    9 type  1   force =     0.00000000    0.00028856    0.01620257
     atom   10 type  1   force =     0.00000000   -0.00028857    0.01620232
     atom   11 type  1   force =     0.00000000    0.00028856    0.01620257
     atom   12 type  1   force =     0.00000000   -0.00028857    0.01620233
     atom   13 type  1   force =     0.00000000    0.00441182   -0.00111176
     atom   14 type  1   force =     0.00000000   -0.00441178   -0.00111180
     atom   15 type  1   force =     0.00000000    0.00441182   -0.00111176
     atom   16 type  1   force =     0.00000000   -0.00441178   -0.00111180
     atom   17 type  1   force =     0.01591579   -0.01820366    0.01041683
     atom   18 type  1   force =    -0.01591578    0.01820366    0.01041682
     atom   19 type  1   force =     0.01591578    0.01820366    0.01041682
     atom   20 type  1   force =    -0.01591579   -0.01820366    0.01041683
     atom   21 type  1   force =     0.01591582   -0.01820368    0.01041685
     atom   22 type  1   force =    -0.01591582    0.01820368    0.01041683
     atom   23 type  1   force =     0.01591582    0.01820368    0.01041683
     atom   24 type  1   force =    -0.01591582   -0.01820368    0.01041685

     Total force =     0.116560     Total SCF correction =     0.000124


     Computing stress (Cartesian axis) and pressure

          total   stress  (Ry/bohr**3)                   (kbar)     P=       62.03
   0.00045002   0.00000000   0.00000000           66.20        0.00        0.00
   0.00000000   0.00035145  -0.00000000            0.00       51.70       -0.00
   0.00000000  -0.00000000   0.00046362            0.00       -0.00       68.20

     Energy error            =      1.5E-02 Ry
     Gradient error          =      3.3E-02 Ry/Bohr

     number of scf cycles    =   4
     number of bfgs steps    =   3

     energy             old  =    -278.6490270911 Ry
     energy             new  =    -278.6644289003 Ry

     CASE: energy            _new < energy            _old

     new trust radius        =       0.0334743590 bohr
     new conv_thr            =       0.0000000327 Ry


ATOMIC_POSITIONS (crystal)
O                0.0000000000        0.6663893430        0.0581640730
O                0.0000000000        0.3336106547        0.5581640710
O                0.5000000000        0.1663893415        0.0581640736
O                0.5000000000        0.8336106582        0.5581640686
O                0.5000000000        0.8338930323        0.9322812810
O                0.5000000000        0.1661069760        0.4322812686
O                0.0000000000        0.3338930366        0.9322812776
O                0.0000000000        0.6661069681        0.4322812627
H                0.0000000000        0.6649929262        0.2041212289
H                0.0000000000        0.3350070744        0.7041212158
H                0.5000000000        0.1649929258        0.2041212293
H                0.5000000000        0.8350070756        0.7041212137
H                0.0000000000        0.5353611979        0.0151054810
H                0.0000000000        0.4646387992        0.5151054744
H                0.5000000000        0.0353611951        0.0151054817
H                0.5000000000        0.9646388043        0.5151054743
H                0.6923538789        0.7695324027        0.9841639893
H                0.3076461239        0.2304675960        0.4841639874
H                0.6923538761        0.2304675960        0.4841639874
H                0.3076461211        0.7695324027        0.9841639893
H                0.1923538785        0.2695324058        0.9841639865
H                0.8076461271        0.7304675910        0.4841639822
H                0.1923538729        0.7304675910        0.4841639822
H                0.8076461215        0.2695324058        0.9841639865



     Writing config-only to output data dir ./iceIh_vdw/iceIh_vdw.save/ :
     XML data file
     NEW-OLD atomic charge density approx. for the potential

     total cpu time spent up to now is      479.4 secs

     per-process dynamical memory:    51.7 Mb

     Self-consistent Calculation

     iteration #  1     ecut=    90.00 Ry     beta= 0.70
     Davidson diagonalization with overlap
     ethr =  1.00E-06,  avg # of iterations =  5.2

     total cpu time spent up to now is      495.7 secs

     total energy              =    -278.66871927 Ry
     estimated scf accuracy    <       0.00282574 Ry

     iteration #  2     ecut=    90.00 Ry     beta= 0.70
     Davidson diagonalization with overlap
     ethr =  4.42E-06,  avg # of iterations =  3.0

     total cpu time spent up to now is      505.8 secs

     total energy              =    -278.66939256 Ry
     estimated scf accuracy    <       0.00107614 Ry

     iteration #  3     ecut=    90.00 Ry     beta= 0.70
     Davidson diagonalization with overlap
     ethr =  1.68E-06,  avg # of iterations =  2.3

     total cpu time spent up to now is      514.7 secs

     total energy              =    -278.66962220 Ry
     estimated scf accuracy    <       0.00003110 Ry

     iteration #  4     ecut=    90.00 Ry     beta= 0.70
     Davidson diagonalization with overlap
     ethr =  4.86E-08,  avg # of iterations =  3.2

     total cpu time spent up to now is      525.6 secs

     total energy              =    -278.66963655 Ry
     estimated scf accuracy    <       0.00002064 Ry

     iteration #  5     ecut=    90.00 Ry     beta= 0.70
     Davidson diagonalization with overlap
     ethr =  3.22E-08,  avg # of iterations =  2.0

     total cpu time spent up to now is      533.9 secs

     total energy              =    -278.66963825 Ry
     estimated scf accuracy    <       0.00000277 Ry

     iteration #  6     ecut=    90.00 Ry     beta= 0.70
     Davidson diagonalization with overlap
     ethr =  4.32E-09,  avg # of iterations =  3.3

     total cpu time spent up to now is      544.9 secs

     total energy              =    -278.66963924 Ry
     estimated scf accuracy    <       0.00000150 Ry

     iteration #  7     ecut=    90.00 Ry     beta= 0.70
     Davidson diagonalization with overlap
     ethr =  2.35E-09,  avg # of iterations =  2.0

     total cpu time spent up to now is      553.2 secs

     total energy              =    -278.66963947 Ry
     estimated scf accuracy    <       0.00000004 Ry

     iteration #  8     ecut=    90.00 Ry     beta= 0.70
     Davidson diagonalization with overlap
     ethr =  6.77E-11,  avg # of iterations =  4.2

     total cpu time spent up to now is      565.9 secs

     total energy              =    -278.66963951 Ry
     estimated scf accuracy    <       0.00000003 Ry

     iteration #  9     ecut=    90.00 Ry     beta= 0.70
     Davidson diagonalization with overlap
     ethr =  5.26E-11,  avg # of iterations =  1.4

     total cpu time spent up to now is      572.7 secs

     End of self-consistent calculation

     Number of k-points >= 100: set verbosity='high' to print the bands.

     highest occupied level (ev):    -2.8435

!    total energy              =    -278.66963951 Ry
     estimated scf accuracy    <          6.6E-09 Ry

     The total energy is the sum of the following terms:
     one-electron contribution =    -218.26532798 Ry
     hartree contribution      =     132.06942975 Ry
     xc contribution           =     -70.89105604 Ry
     ewald contribution        =    -121.58268524 Ry

     convergence has been achieved in   9 iterations

     Forces acting on atoms (cartesian axes, Ry/au):

     atom    1 type  2   force =     0.00000000   -0.00061946    0.00286192
     atom    2 type  2   force =     0.00000000    0.00061948    0.00286184
     atom    3 type  2   force =     0.00000000   -0.00061947    0.00286191
     atom    4 type  2   force =     0.00000000    0.00061948    0.00286184
     atom    5 type  2   force =     0.00000000    0.00024211    0.00603678
     atom    6 type  2   force =     0.00000000   -0.00024214    0.00603681
     atom    7 type  2   force =     0.00000000    0.00024209    0.00603680
     atom    8 type  2   force =     0.00000000   -0.00024212    0.00603682
     atom    9 type  1   force =     0.00000000    0.00191170   -0.00096034
     atom   10 type  1   force =     0.00000000   -0.00191169   -0.00096024
     atom   11 type  1   force =     0.00000000    0.00191170   -0.00096034
     atom   12 type  1   force =     0.00000000   -0.00191169   -0.00096024
     atom   13 type  1   force =     0.00000000    0.00287406   -0.00396168
     atom   14 type  1   force =     0.00000000   -0.00287407   -0.00396168
     atom   15 type  1   force =     0.00000000    0.00287406   -0.00396168
     atom   16 type  1   force =     0.00000000   -0.00287407   -0.00396168
     atom   17 type  1   force =    -0.00420556   -0.00280049   -0.00198835
     atom   18 type  1   force =     0.00420554    0.00280050   -0.00198835
     atom   19 type  1   force =    -0.00420554    0.00280050   -0.00198835
     atom   20 type  1   force =     0.00420556   -0.00280049   -0.00198835
     atom   21 type  1   force =    -0.00420556   -0.00280049   -0.00198836
     atom   22 type  1   force =     0.00420554    0.00280050   -0.00198836
     atom   23 type  1   force =    -0.00420554    0.00280050   -0.00198836
     atom   24 type  1   force =     0.00420556   -0.00280049   -0.00198836

     Total force =     0.023028     Total SCF correction =     0.000047


     Computing stress (Cartesian axis) and pressure

          total   stress  (Ry/bohr**3)                   (kbar)     P=       41.18
   0.00023902   0.00000000   0.00000000           35.16        0.00        0.00
   0.00000000   0.00028934   0.00000000            0.00       42.56        0.00
   0.00000000   0.00000000   0.00031141            0.00        0.00       45.81

     Energy error            =      5.2E-03 Ry
     Gradient error          =      6.0E-03 Ry/Bohr

     number of scf cycles    =   5
     number of bfgs steps    =   4

     energy             old  =    -278.6644289003 Ry
     energy             new  =    -278.6696395072 Ry

     CASE: energy            _new < energy            _old

     new trust radius        =       0.0058950631 bohr
     new conv_thr            =       0.0000000060 Ry


ATOMIC_POSITIONS (crystal)
O                0.0000000000        0.6663406393        0.0583580761
O                0.0000000000        0.3336593595        0.5583580695
O                0.5000000000        0.1663406375        0.0583580765
O                0.5000000000        0.8336593629        0.5583580672
O                0.5000000000        0.8339642160        0.9327263095
O                0.5000000000        0.1660357898        0.4327262988
O                0.0000000000        0.3339642196        0.9327263069
O                0.0000000000        0.6660357829        0.4327262939
H                0.0000000000        0.6651396194        0.2040850158
H                0.0000000000        0.3348603815        0.7040850093
H                0.5000000000        0.1651396190        0.2040850164
H                0.5000000000        0.8348603827        0.7040850069
H                0.0000000000        0.5355734130        0.0147873304
H                0.0000000000        0.4644265835        0.5147873239
H                0.5000000000        0.0355734107        0.0147873313
H                0.5000000000        0.9644265883        0.5147873239
H                0.6918953214        0.7692988971        0.9840216543
H                0.3081046796        0.2307011025        0.4840216523
H                0.6918953204        0.2307011025        0.4840216523
H                0.3081046786        0.7692988971        0.9840216543
H                0.1918953208        0.2692989002        0.9840216514
H                0.8081046821        0.7307010975        0.4840216470
H                0.1918953179        0.7307010975        0.4840216470
H                0.8081046792        0.2692989002        0.9840216514



     Writing config-only to output data dir ./iceIh_vdw/iceIh_vdw.save/ :
     XML data file
     NEW-OLD atomic charge density approx. for the potential

     total cpu time spent up to now is      581.1 secs

     per-process dynamical memory:    51.7 Mb

     Self-consistent Calculation

     iteration #  1     ecut=    90.00 Ry     beta= 0.70
     Davidson diagonalization with overlap
     ethr =  1.00E-06,  avg # of iterations =  3.0

     Threshold (ethr) on eigenvalues was too large:
     Diagonalizing with lowered threshold

     Davidson diagonalization with overlap
     ethr =  6.45E-08,  avg # of iterations =  2.0

     total cpu time spent up to now is      598.7 secs

     total energy              =    -278.67005305 Ry
     estimated scf accuracy    <       0.00004343 Ry

     iteration #  2     ecut=    90.00 Ry     beta= 0.70
     Davidson diagonalization with overlap
     ethr =  6.79E-08,  avg # of iterations =  2.0

     total cpu time spent up to now is      607.6 secs

     total energy              =    -278.67006201 Ry
     estimated scf accuracy    <       0.00000598 Ry

     iteration #  3     ecut=    90.00 Ry     beta= 0.70
     Davidson diagonalization with overlap
     ethr =  9.34E-09,  avg # of iterations =  2.0

     total cpu time spent up to now is      616.3 secs

     total energy              =    -278.67006323 Ry
     estimated scf accuracy    <       0.00000023 Ry

     iteration #  4     ecut=    90.00 Ry     beta= 0.70
     Davidson diagonalization with overlap
     ethr =  3.62E-10,  avg # of iterations =  3.0

     total cpu time spent up to now is      625.3 secs

     total energy              =    -278.67006327 Ry
     estimated scf accuracy    <       0.00000006 Ry

     iteration #  5     ecut=    90.00 Ry     beta= 0.70
     Davidson diagonalization with overlap
     ethr =  9.96E-11,  avg # of iterations =  2.9

     total cpu time spent up to now is      634.9 secs

     total energy              =    -278.67006329 Ry
     estimated scf accuracy    <       0.00000001 Ry

     iteration #  6     ecut=    90.00 Ry     beta= 0.70
     Davidson diagonalization with overlap
     ethr =  2.04E-11,  avg # of iterations =  2.6

     total cpu time spent up to now is      643.7 secs

     End of self-consistent calculation

     Number of k-points >= 100: set verbosity='high' to print the bands.

     highest occupied level (ev):    -2.8502

!    total energy              =    -278.67006329 Ry
     estimated scf accuracy    <          3.3E-09 Ry

     The total energy is the sum of the following terms:
     one-electron contribution =    -218.42973340 Ry
     hartree contribution      =     132.14283402 Ry
     xc contribution           =     -70.90744255 Ry
     ewald contribution        =    -121.47572135 Ry

     convergence has been achieved in   6 iterations

     Forces acting on atoms (cartesian axes, Ry/au):

     atom    1 type  2   force =     0.00000000    0.00079758    0.00062346
     atom    2 type  2   force =     0.00000000   -0.00079759    0.00062350
     atom    3 type  2   force =     0.00000000    0.00079758    0.00062346
     atom    4 type  2   force =     0.00000000   -0.00079759    0.00062350
     atom    5 type  2   force =     0.00000000    0.00147180    0.00365317
     atom    6 type  2   force =     0.00000000   -0.00147181    0.00365320
     atom    7 type  2   force =     0.00000000    0.00147179    0.00365317
     atom    8 type  2   force =     0.00000000   -0.00147180    0.00365321
     atom    9 type  1   force =     0.00000000    0.00103101    0.00042032
     atom   10 type  1   force =     0.00000000   -0.00103101    0.00042032
     atom   11 type  1   force =     0.00000000    0.00103101    0.00042032
     atom   12 type  1   force =     0.00000000   -0.00103101    0.00042032
     atom   13 type  1   force =     0.00000000    0.00180301   -0.00294096
     atom   14 type  1   force =     0.00000000   -0.00180300   -0.00294097
     atom   15 type  1   force =     0.00000000    0.00180301   -0.00294096
     atom   16 type  1   force =     0.00000000   -0.00180300   -0.00294097
     atom   17 type  1   force =    -0.00210051   -0.00326915   -0.00087801
     atom   18 type  1   force =     0.00210050    0.00326916   -0.00087801
     atom   19 type  1   force =    -0.00210050    0.00326916   -0.00087801
     atom   20 type  1   force =     0.00210051   -0.00326915   -0.00087801
     atom   21 type  1   force =    -0.00210050   -0.00326916   -0.00087800
     atom   22 type  1   force =     0.00210050    0.00326916   -0.00087801
     atom   23 type  1   force =    -0.00210050    0.00326916   -0.00087801
     atom   24 type  1   force =     0.00210050   -0.00326916   -0.00087800

     Total force =     0.015674     Total SCF correction =     0.000040


     Computing stress (Cartesian axis) and pressure

          total   stress  (Ry/bohr**3)                   (kbar)     P=       43.22
   0.00025857   0.00000000   0.00000000           38.04        0.00        0.00
   0.00000000   0.00030166   0.00000000            0.00       44.38        0.00
   0.00000000   0.00000000   0.00032112            0.00        0.00       47.24

     Energy error            =      4.2E-04 Ry
     Gradient error          =      3.7E-03 Ry/Bohr

     number of scf cycles    =   6
     number of bfgs steps    =   5

     energy             old  =    -278.6696395072 Ry
     energy             new  =    -278.6700632877 Ry

     CASE: energy            _new < energy            _old

     new trust radius        =       0.0064845694 bohr
     new conv_thr            =       0.0000000037 Ry


ATOMIC_POSITIONS (crystal)
O                0.0000000000        0.6663956454        0.0584612638
O                0.0000000000        0.3336043526        0.5584612598
O                0.5000000000        0.1663956437        0.0584612643
O                0.5000000000        0.8336043558        0.5584612574
O                0.5000000000        0.8341428916        0.9331850372
O                0.5000000000        0.1658571124        0.4331850300
O                0.0000000000        0.3341428948        0.9331850351
O                0.0000000000        0.6658571062        0.4331850260
H                0.0000000000        0.6652781737        0.2041341520
H                0.0000000000        0.3347218273        0.7041341473
H                0.5000000000        0.1652781734        0.2041341526
H                0.5000000000        0.8347218285        0.7041341448
H                0.0000000000        0.5357926163        0.0144119086
H                0.0000000000        0.4642073816        0.5144119013
H                0.5000000000        0.0357926142        0.0144119097
H                0.5000000000        0.9642073859        0.5144119014
H                0.6914821166        0.7689286808        0.9839038376
H                0.3085178836        0.2310713193        0.4839038351
H                0.6914821164        0.2310713193        0.4839038351
H                0.3085178834        0.7689286808        0.9839038376
H                0.1914821163        0.2689286836        0.9839038349
H                0.8085178850        0.7310713145        0.4839038299
H                0.1914821150        0.7310713145        0.4839038299
H                0.8085178837        0.2689286836        0.9839038349



     Writing config-only to output data dir ./iceIh_vdw/iceIh_vdw.save/ :
     XML data file
     NEW-OLD atomic charge density approx. for the potential

     total cpu time spent up to now is      652.1 secs

     per-process dynamical memory:    51.8 Mb

     Self-consistent Calculation

     iteration #  1     ecut=    90.00 Ry     beta= 0.70
     Davidson diagonalization with overlap
     ethr =  1.00E-06,  avg # of iterations =  3.0

     Threshold (ethr) on eigenvalues was too large:
     Diagonalizing with lowered threshold

     Davidson diagonalization with overlap
     ethr =  4.92E-08,  avg # of iterations =  2.0

     total cpu time spent up to now is      669.6 secs

     total energy              =    -278.67038772 Ry
     estimated scf accuracy    <       0.00003498 Ry

     iteration #  2     ecut=    90.00 Ry     beta= 0.70
     Davidson diagonalization with overlap
     ethr =  5.47E-08,  avg # of iterations =  2.0

     total cpu time spent up to now is      677.9 secs

     total energy              =    -278.67039300 Ry
     estimated scf accuracy    <       0.00000207 Ry

     iteration #  3     ecut=    90.00 Ry     beta= 0.70
     Davidson diagonalization with overlap
     ethr =  3.24E-09,  avg # of iterations =  2.5

     total cpu time spent up to now is      687.4 secs

     total energy              =    -278.67039358 Ry
     estimated scf accuracy    <       0.00000036 Ry

     iteration #  4     ecut=    90.00 Ry     beta= 0.70
     Davidson diagonalization with overlap
     ethr =  5.61E-10,  avg # of iterations =  2.4

     total cpu time spent up to now is      695.9 secs

     total energy              =    -278.67039365 Ry
     estimated scf accuracy    <       0.00000003 Ry

     iteration #  5     ecut=    90.00 Ry     beta= 0.70
     Davidson diagonalization with overlap
     ethr =  3.95E-11,  avg # of iterations =  2.7

     total cpu time spent up to now is      705.5 secs

     total energy              =    -278.67039365 Ry
     estimated scf accuracy    <          6.4E-09 Ry

     iteration #  6     ecut=    90.00 Ry     beta= 0.70
     Davidson diagonalization with overlap
     ethr =  1.01E-11,  avg # of iterations =  2.5

     total cpu time spent up to now is      714.1 secs

     End of self-consistent calculation

     Number of k-points >= 100: set verbosity='high' to print the bands.

     highest occupied level (ev):    -2.8546

!    total energy              =    -278.67039365 Ry
     estimated scf accuracy    <          6.9E-10 Ry

     The total energy is the sum of the following terms:
     one-electron contribution =    -218.49574345 Ry
     hartree contribution      =     132.17258876 Ry
     xc contribution           =     -70.91376436 Ry
     ewald contribution        =    -121.43347460 Ry

     convergence has been achieved in   6 iterations

     Forces acting on atoms (cartesian axes, Ry/au):

     atom    1 type  2   force =     0.00000000    0.00138722   -0.00023940
     atom    2 type  2   force =     0.00000000   -0.00138721   -0.00023940
     atom    3 type  2   force =     0.00000000    0.00138723   -0.00023940
     atom    4 type  2   force =     0.00000000   -0.00138721   -0.00023940
     atom    5 type  2   force =     0.00000000    0.00121960    0.00213002
     atom    6 type  2   force =     0.00000000   -0.00121961    0.00213003
     atom    7 type  2   force =     0.00000000    0.00121960    0.00213002
     atom    8 type  2   force =     0.00000000   -0.00121961    0.00213004
     atom    9 type  1   force =     0.00000000    0.00030378    0.00049175
     atom   10 type  1   force =     0.00000000   -0.00030378    0.00049176
     atom   11 type  1   force =     0.00000000    0.00030378    0.00049175
     atom   12 type  1   force =     0.00000000   -0.00030378    0.00049176
     atom   13 type  1   force =     0.00000000    0.00129651   -0.00182185
     atom   14 type  1   force =     0.00000000   -0.00129652   -0.00182184
     atom   15 type  1   force =     0.00000000    0.00129652   -0.00182184
     atom   16 type  1   force =     0.00000000   -0.00129652   -0.00182184
     atom   17 type  1   force =    -0.00066316   -0.00292660   -0.00028027
     atom   18 type  1   force =     0.00066315    0.00292660   -0.00028027
     atom   19 type  1   force =    -0.00066315    0.00292660   -0.00028027
     atom   20 type  1   force =     0.00066316   -0.00292660   -0.00028027
     atom   21 type  1   force =    -0.00066316   -0.00292660   -0.00028027
     atom   22 type  1   force =     0.00066315    0.00292661   -0.00028027
     atom   23 type  1   force =    -0.00066315    0.00292661   -0.00028027
     atom   24 type  1   force =     0.00066316   -0.00292660   -0.00028027

     Total force =     0.011226     Total SCF correction =     0.000059


     Computing stress (Cartesian axis) and pressure

          total   stress  (Ry/bohr**3)                   (kbar)     P=       44.04
   0.00027159   0.00000000   0.00000000           39.95        0.00        0.00
   0.00000000   0.00030737   0.00000000            0.00       45.22        0.00
   0.00000000   0.00000000   0.00031920            0.00        0.00       46.96

     Energy error            =      3.3E-04 Ry
     Gradient error          =      2.9E-03 Ry/Bohr

     number of scf cycles    =   7
     number of bfgs steps    =   6

     energy             old  =    -278.6700632877 Ry
     energy             new  =    -278.6703936517 Ry

     CASE: energy            _new < energy            _old

     new trust radius        =       0.0097268540 bohr
     new conv_thr            =       0.0000000029 Ry


ATOMIC_POSITIONS (crystal)
O                0.0000000000        0.6665768732        0.0585478195
O                0.0000000000        0.3334231272        0.5585478144
O                0.5000000000        0.1665768715        0.0585478198
O                0.5000000000        0.8334231299        0.5585478120
O                0.5000000000        0.8344104721        0.9338389558
O                0.5000000000        0.1655895286        0.4338389529
O                0.0000000000        0.3344104746        0.9338389547
O                0.0000000000        0.6655895235        0.4338389502
H                0.0000000000        0.6654349565        0.2042115599
H                0.0000000000        0.3345650447        0.7042115605
H                0.5000000000        0.1654349564        0.2042115605
H                0.5000000000        0.8345650458        0.7042115578
H                0.0000000000        0.5361376867        0.0138772950
H                0.0000000000        0.4638623100        0.5138772881
H                0.5000000000        0.0361376850        0.0138772963
H                0.5000000000        0.9638623138        0.5138772883
H                0.6910083223        0.7682982693        0.9837622006
H                0.3089916760        0.2317017318        0.4837621979
H                0.6910083240        0.2317017318        0.4837621979
H                0.3089916777        0.7682982693        0.9837622006
H                0.1910083224        0.2682982717        0.9837621984
H                0.8089916759        0.7317017275        0.4837621931
H                0.1910083241        0.7317017275        0.4837621931
H                0.8089916776        0.2682982717        0.9837621984



     Writing config-only to output data dir ./iceIh_vdw/iceIh_vdw.save/ :
     XML data file
     NEW-OLD atomic charge density approx. for the potential

     total cpu time spent up to now is      722.5 secs

     per-process dynamical memory:    52.5 Mb

     Self-consistent Calculation

     iteration #  1     ecut=    90.00 Ry     beta= 0.70
     Davidson diagonalization with overlap
     ethr =  1.00E-06,  avg # of iterations =  3.1

     total cpu time spent up to now is      734.1 secs

     total energy              =    -278.67067008 Ry
     estimated scf accuracy    <       0.00006598 Ry

     iteration #  2     ecut=    90.00 Ry     beta= 0.70
     Davidson diagonalization with overlap
     ethr =  1.03E-07,  avg # of iterations =  2.0

     total cpu time spent up to now is      742.3 secs

     total energy              =    -278.67068014 Ry
     estimated scf accuracy    <       0.00000442 Ry

     iteration #  3     ecut=    90.00 Ry     beta= 0.70
     Davidson diagonalization with overlap
     ethr =  6.91E-09,  avg # of iterations =  3.0

     total cpu time spent up to now is      751.9 secs

     total energy              =    -278.67068133 Ry
     estimated scf accuracy    <       0.00000155 Ry

     iteration #  4     ecut=    90.00 Ry     beta= 0.70
     Davidson diagonalization with overlap
     ethr =  2.42E-09,  avg # of iterations =  3.0

     total cpu time spent up to now is      760.5 secs

     total energy              =    -278.67068168 Ry
     estimated scf accuracy    <       0.00000009 Ry

     iteration #  5     ecut=    90.00 Ry     beta= 0.70
     Davidson diagonalization with overlap
     ethr =  1.35E-10,  avg # of iterations =  3.1

     total cpu time spent up to now is      770.0 secs

     total energy              =    -278.67068169 Ry
     estimated scf accuracy    <       0.00000003 Ry

     iteration #  6     ecut=    90.00 Ry     beta= 0.70
     Davidson diagonalization with overlap
     ethr =  3.98E-11,  avg # of iterations =  2.9

     total cpu time spent up to now is      778.4 secs

     End of self-consistent calculation

     Number of k-points >= 100: set verbosity='high' to print the bands.

     highest occupied level (ev):    -2.8594

!    total energy              =    -278.67068170 Ry
     estimated scf accuracy    <          1.0E-09 Ry

     The total energy is the sum of the following terms:
     one-electron contribution =    -218.51944134 Ry
     hartree contribution      =     132.18345697 Ry
     xc contribution           =     -70.91564654 Ry
     ewald contribution        =    -121.41905080 Ry

     convergence has been achieved in   6 iterations

     Forces acting on atoms (cartesian axes, Ry/au):

     atom    1 type  2   force =     0.00000000    0.00145480   -0.00089917
     atom    2 type  2   force =     0.00000000   -0.00145483   -0.00089910
     atom    3 type  2   force =     0.00000000    0.00145480   -0.00089917
     atom    4 type  2   force =     0.00000000   -0.00145483   -0.00089911
     atom    5 type  2   force =     0.00000000   -0.00016121    0.00071190
     atom    6 type  2   force =     0.00000000    0.00016122    0.00071192
     atom    7 type  2   force =     0.00000000   -0.00016121    0.00071190
     atom    8 type  2   force =     0.00000000    0.00016122    0.00071192
     atom    9 type  1   force =     0.00000000   -0.00047352    0.00021595
     atom   10 type  1   force =     0.00000000    0.00047352    0.00021590
     atom   11 type  1   force =     0.00000000   -0.00047352    0.00021595
     atom   12 type  1   force =     0.00000000    0.00047352    0.00021590
     atom   13 type  1   force =     0.00000000    0.00089703   -0.00032319
     atom   14 type  1   force =     0.00000000   -0.00089700   -0.00032320
     atom   15 type  1   force =     0.00000000    0.00089703   -0.00032319
     atom   16 type  1   force =     0.00000000   -0.00089700   -0.00032320
     atom   17 type  1   force =     0.00057287   -0.00179545    0.00014725
     atom   18 type  1   force =    -0.00057286    0.00179544    0.00014725
     atom   19 type  1   force =     0.00057286    0.00179544    0.00014725
     atom   20 type  1   force =    -0.00057287   -0.00179545    0.00014725
     atom   21 type  1   force =     0.00057287   -0.00179545    0.00014725
     atom   22 type  1   force =    -0.00057286    0.00179545    0.00014725
     atom   23 type  1   force =     0.00057286    0.00179545    0.00014725
     atom   24 type  1   force =    -0.00057287   -0.00179545    0.00014725

     Total force =     0.006866     Total SCF correction =     0.000099


     Computing stress (Cartesian axis) and pressure

          total   stress  (Ry/bohr**3)                   (kbar)     P=       44.31
   0.00028376   0.00000000   0.00000000           41.74        0.00        0.00
   0.00000000   0.00030928  -0.00000000            0.00       45.50       -0.00
   0.00000000  -0.00000000   0.00031065            0.00       -0.00       45.70

     Energy error            =      2.9E-04 Ry
     Gradient error          =      1.8E-03 Ry/Bohr

     number of scf cycles    =   8
     number of bfgs steps    =   7

     energy             old  =    -278.6703936517 Ry
     energy             new  =    -278.6706816986 Ry

     CASE: energy            _new < energy            _old

     new trust radius        =       0.0073706066 bohr
     new conv_thr            =       0.0000000018 Ry


ATOMIC_POSITIONS (crystal)
O                0.0000000000        0.6667928352        0.0585343192
O                0.0000000000        0.3332071627        0.5585343210
O                0.5000000000        0.1667928341        0.0585343198
O                0.5000000000        0.8332071650        0.5585343185
O                0.5000000000        0.8345086176        0.9343114714
O                0.5000000000        0.1654913825        0.4343114727
O                0.0000000000        0.3345086197        0.9343114709
O                0.0000000000        0.6654913781        0.4343114709
H                0.0000000000        0.6654858956        0.2042529427
H                0.0000000000        0.3345141060        0.7042529411
H                0.5000000000        0.1654858957        0.2042529431
H                0.5000000000        0.8345141068        0.7042529385
H                0.0000000000        0.5364369162        0.0135388566
H                0.0000000000        0.4635630834        0.5135388493
H                0.5000000000        0.0364369144        0.0135388579
H                0.5000000000        0.9635630866        0.5135388494
H                0.6907979377        0.7677875960        0.9836812184
H                0.3092020612        0.2322124050        0.4836812153
H                0.6907979388        0.2322124050        0.4836812153
H                0.3092020623        0.7677875960        0.9836812184
H                0.1907979380        0.2677875979        0.9836812167
H                0.8092020605        0.7322124013        0.4836812110
H                0.1907979395        0.7322124013        0.4836812110
H                0.8092020620        0.2677875979        0.9836812167



     Writing config-only to output data dir ./iceIh_vdw/iceIh_vdw.save/ :
     XML data file
     NEW-OLD atomic charge density approx. for the potential

     total cpu time spent up to now is      786.9 secs

     per-process dynamical memory:    53.1 Mb

     Self-consistent Calculation

     iteration #  1     ecut=    90.00 Ry     beta= 0.70
     Davidson diagonalization with overlap
     ethr =  1.00E-06,  avg # of iterations =  3.0

     Threshold (ethr) on eigenvalues was too large:
     Diagonalizing with lowered threshold

     Davidson diagonalization with overlap
     ethr =  5.68E-08,  avg # of iterations =  2.1

     total cpu time spent up to now is      804.9 secs

     total energy              =    -278.67076403 Ry
     estimated scf accuracy    <       0.00004095 Ry

     iteration #  2     ecut=    90.00 Ry     beta= 0.70
     Davidson diagonalization with overlap
     ethr =  6.40E-08,  avg # of iterations =  2.0

     total cpu time spent up to now is      813.4 secs

     total energy              =    -278.67076979 Ry
     estimated scf accuracy    <       0.00000461 Ry

     iteration #  3     ecut=    90.00 Ry     beta= 0.70
     Davidson diagonalization with overlap
     ethr =  7.20E-09,  avg # of iterations =  3.0

     total cpu time spent up to now is      823.2 secs

     total energy              =    -278.67077099 Ry
     estimated scf accuracy    <       0.00000163 Ry

     iteration #  4     ecut=    90.00 Ry     beta= 0.70
     Davidson diagonalization with overlap
     ethr =  2.54E-09,  avg # of iterations =  2.6

     total cpu time spent up to now is      831.6 secs

     total energy              =    -278.67077130 Ry
     estimated scf accuracy    <       0.00000004 Ry

     iteration #  5     ecut=    90.00 Ry     beta= 0.70
     Davidson diagonalization with overlap
     ethr =  6.08E-11,  avg # of iterations =  5.3

     total cpu time spent up to now is      845.5 secs

     total energy              =    -278.67077131 Ry
     estimated scf accuracy    <       0.00000007 Ry

     iteration #  6     ecut=    90.00 Ry     beta= 0.70
     Davidson diagonalization with overlap
     ethr =  6.08E-11,  avg # of iterations =  3.0

     total cpu time spent up to now is      855.0 secs

     End of self-consistent calculation

     Number of k-points >= 100: set verbosity='high' to print the bands.

     highest occupied level (ev):    -2.8623

!    total energy              =    -278.67077133 Ry
     estimated scf accuracy    <          8.5E-10 Ry

     The total energy is the sum of the following terms:
     one-electron contribution =    -218.50285911 Ry
     hartree contribution      =     132.17603661 Ry
     xc contribution           =     -70.91363568 Ry
     ewald contribution        =    -121.43031315 Ry

     convergence has been achieved in   6 iterations

     Forces acting on atoms (cartesian axes, Ry/au):

     atom    1 type  2   force =     0.00000000    0.00097195   -0.00058754
     atom    2 type  2   force =     0.00000000   -0.00097191   -0.00058760
     atom    3 type  2   force =     0.00000000    0.00097195   -0.00058755
     atom    4 type  2   force =     0.00000000   -0.00097192   -0.00058760
     atom    5 type  2   force =     0.00000000   -0.00121302   -0.00012392
     atom    6 type  2   force =     0.00000000    0.00121302   -0.00012394
     atom    7 type  2   force =     0.00000000   -0.00121302   -0.00012392
     atom    8 type  2   force =     0.00000000    0.00121302   -0.00012394
     atom    9 type  1   force =     0.00000000   -0.00069496   -0.00030765
     atom   10 type  1   force =     0.00000000    0.00069496   -0.00030762
     atom   11 type  1   force =     0.00000000   -0.00069496   -0.00030765
     atom   12 type  1   force =     0.00000000    0.00069496   -0.00030762
     atom   13 type  1   force =     0.00000000    0.00058691    0.00044269
     atom   14 type  1   force =     0.00000000   -0.00058694    0.00044271
     atom   15 type  1   force =     0.00000000    0.00058691    0.00044269
     atom   16 type  1   force =     0.00000000   -0.00058694    0.00044271
     atom   17 type  1   force =     0.00094129   -0.00079261    0.00028821
     atom   18 type  1   force =    -0.00094130    0.00079261    0.00028822
     atom   19 type  1   force =     0.00094130    0.00079261    0.00028822
     atom   20 type  1   force =    -0.00094129   -0.00079261    0.00028821
     atom   21 type  1   force =     0.00094129   -0.00079261    0.00028822
     atom   22 type  1   force =    -0.00094130    0.00079262    0.00028823
     atom   23 type  1   force =     0.00094130    0.00079262    0.00028823
     atom   24 type  1   force =    -0.00094129   -0.00079261    0.00028822

     Total force =     0.005325     Total SCF correction =     0.000064


     Computing stress (Cartesian axis) and pressure

          total   stress  (Ry/bohr**3)                   (kbar)     P=       44.06
   0.00029057   0.00000000   0.00000000           42.74        0.00        0.00
   0.00000000   0.00030798   0.00000000            0.00       45.31        0.00
   0.00000000   0.00000000   0.00030002            0.00        0.00       44.13

     Energy error            =      9.0E-05 Ry
     Gradient error          =      1.2E-03 Ry/Bohr

     number of scf cycles    =   9
     number of bfgs steps    =   8

     energy             old  =    -278.6706816986 Ry
     energy             new  =    -278.6707713263 Ry

     CASE: energy            _new < energy            _old

     new trust radius        =       0.0029131824 bohr
     new conv_thr            =       0.0000000010 Ry


ATOMIC_POSITIONS (crystal)
O                0.0000000000        0.6669202325        0.0584970037
O                0.0000000000        0.3330797685        0.5584970009
O                0.5000000000        0.1669202312        0.0584970039
O                0.5000000000        0.8330797705        0.5584969984
O                0.5000000000        0.8344257969        0.9344537551
O                0.5000000000        0.1655742021        0.4344537560
O                0.0000000000        0.3344257987        0.9344537548
O                0.0000000000        0.6655741981        0.4344537544
H                0.0000000000        0.6654502627        0.2042262936
H                0.0000000000        0.3345497389        0.7042262954
H                0.5000000000        0.1654502630        0.2042262942
H                0.5000000000        0.8345497395        0.7042262928
H                0.0000000000        0.5365809847        0.0134728544
H                0.0000000000        0.4634190122        0.5134728492
H                0.5000000000        0.0365809833        0.0134728558
H                0.5000000000        0.9634190153        0.5134728491
H                0.6908430710        0.7675796630        0.9836750592
H                0.3091569272        0.2324203382        0.4836750570
H                0.6908430728        0.2324203382        0.4836750570
H                0.3091569290        0.7675796630        0.9836750592
H                0.1908430713        0.2675796646        0.9836750579
H                0.8091569265        0.7324203350        0.4836750531
H                0.1908430735        0.7324203350        0.4836750531
[...]


     Computing stress (Cartesian axis) and pressure

          total   stress  (Ry/bohr**3)                   (kbar)     P=       43.90
   0.00029231   0.00000000   0.00000000           43.00        0.00        0.00
   0.00000000   0.00030623  -0.00000000            0.00       45.05       -0.00
   0.00000000  -0.00000000   0.00029679            0.00       -0.00       43.66

     Energy error            =      3.0E-05 Ry
     Gradient error          =      1.3E-03 Ry/Bohr

     number of scf cycles    =  10
     number of bfgs steps    =   9

     energy             old  =    -278.6707713263 Ry
     energy             new  =    -278.6708015275 Ry

     CASE: energy            _new < energy            _old

     new trust radius        =       0.0032045007 bohr
     new conv_thr            =       0.0000000010 Ry


ATOMIC_POSITIONS (crystal)
O                0.0000000000        0.6670553375        0.0584333242
O                0.0000000000        0.3329446601        0.5584333273
O                0.5000000000        0.1670553366        0.0584333247
O                0.5000000000        0.8329446619        0.5584333247
O                0.5000000000        0.8342069276        0.9345310310
O                0.5000000000        0.1657930729        0.4345310328
O                0.0000000000        0.3342069292        0.9345310311
O                0.0000000000        0.6657930692        0.4345310314
H                0.0000000000        0.6653711261        0.2041743851
H                0.0000000000        0.3346288756        0.7041743823
H                0.5000000000        0.1653711266        0.2041743854
H                0.5000000000        0.8346288759        0.7041743798
H                0.0000000000        0.5367330501        0.0134688368
H                0.0000000000        0.4632669500        0.5134688320
H                0.5000000000        0.0367330486        0.0134688381
H                0.5000000000        0.9632669525        0.5134688316
H                0.6909867647        0.7673803293        0.9836962229
H                0.3090132351        0.2326196713        0.4836962211
H                0.6909867649        0.2326196713        0.4836962211
H                0.3090132353        0.7673803293        0.9836962229
H                0.1909867650        0.2673803304        0.9836962221
H                0.8090132350        0.7326196687        0.4836962177
H                0.1909867650        0.7326196687        0.4836962177
H                0.8090132350        0.2673803304        0.9836962221



     Writing config-only to output data dir ./iceIh_vdw/iceIh_vdw.save/ :
     XML data file
     NEW-OLD atomic charge density approx. for the potential

     total cpu time spent up to now is      945.2 secs

     per-process dynamical memory:    53.1 Mb

     Self-consistent Calculation

     iteration #  1     ecut=    90.00 Ry     beta= 0.70
     Davidson diagonalization with overlap
     ethr =  1.00E-06,  avg # of iterations =  2.4

     Threshold (ethr) on eigenvalues was too large:
     Diagonalizing with lowered threshold

     Davidson diagonalization with overlap
     ethr =  1.58E-08,  avg # of iterations =  3.0

     total cpu time spent up to now is      964.0 secs

     total energy              =    -278.67082710 Ry
     estimated scf accuracy    <       0.00001167 Ry

     iteration #  2     ecut=    90.00 Ry     beta= 0.70
     Davidson diagonalization with overlap
     ethr =  1.82E-08,  avg # of iterations =  3.0

     total cpu time spent up to now is      973.8 secs

     total energy              =    -278.67082880 Ry
     estimated scf accuracy    <       0.00000583 Ry

     iteration #  3     ecut=    90.00 Ry     beta= 0.70
     Davidson diagonalization with overlap
     ethr =  9.10E-09,  avg # of iterations =  3.0

     total cpu time spent up to now is      983.4 secs

     total energy              =    -278.67083034 Ry
     estimated scf accuracy    <       0.00000022 Ry

     iteration #  4     ecut=    90.00 Ry     beta= 0.70
     Davidson diagonalization with overlap
     ethr =  3.44E-10,  avg # of iterations =  2.7

     total cpu time spent up to now is      991.5 secs

     total energy              =    -278.67083034 Ry
     estimated scf accuracy    <       0.00000008 Ry

     iteration #  5     ecut=    90.00 Ry     beta= 0.70
     Davidson diagonalization with overlap
     ethr =  1.23E-10,  avg # of iterations =  3.3

     total cpu time spent up to now is     1002.2 secs

     total energy              =    -278.67083036 Ry
     estimated scf accuracy    <       0.00000002 Ry

     iteration #  6     ecut=    90.00 Ry     beta= 0.70
     Davidson diagonalization with overlap
     ethr =  3.18E-11,  avg # of iterations =  2.2

     total cpu time spent up to now is     1009.8 secs

     total energy              =    -278.67083037 Ry
     estimated scf accuracy    <          2.0E-09 Ry

     iteration #  7     ecut=    90.00 Ry     beta= 0.70
     Davidson diagonalization with overlap
     ethr =  3.16E-12,  avg # of iterations =  3.2

     total cpu time spent up to now is     1019.6 secs

     End of self-consistent calculation

     Number of k-points >= 100: set verbosity='high' to print the bands.

     highest occupied level (ev):    -2.8650

!    total energy              =    -278.67083037 Ry
     estimated scf accuracy    <          1.0E-11 Ry

     The total energy is the sum of the following terms:
     one-electron contribution =    -218.47789582 Ry
     hartree contribution      =     132.16497306 Ry
     xc contribution           =     -70.91111009 Ry
     ewald contribution        =    -121.44679751 Ry

     convergence has been achieved in   7 iterations

     Forces acting on atoms (cartesian axes, Ry/au):

     atom    1 type  2   force =     0.00000000   -0.00018970    0.00006978
     atom    2 type  2   force =     0.00000000    0.00018975    0.00006970
     atom    3 type  2   force =     0.00000000   -0.00018970    0.00006977
     atom    4 type  2   force =     0.00000000    0.00018975    0.00006970
     atom    5 type  2   force =     0.00000000   -0.00104408   -0.00043544
     atom    6 type  2   force =     0.00000000    0.00104407   -0.00043545
     atom    7 type  2   force =     0.00000000   -0.00104409   -0.00043543
     atom    8 type  2   force =     0.00000000    0.00104407   -0.00043545
     atom    9 type  1   force =     0.00000000   -0.00012680   -0.00009246
     atom   10 type  1   force =     0.00000000    0.00012680   -0.00009241
     atom   11 type  1   force =     0.00000000   -0.00012680   -0.00009246
     atom   12 type  1   force =     0.00000000    0.00012680   -0.00009241
     atom   13 type  1   force =     0.00000000   -0.00000576    0.00011384
     atom   14 type  1   force =     0.00000000    0.00000572    0.00011386
     atom   15 type  1   force =     0.00000000   -0.00000576    0.00011384
     atom   16 type  1   force =     0.00000000    0.00000572    0.00011386
     atom   17 type  1   force =     0.00017604   -0.00018308    0.00017214
     atom   18 type  1   force =    -0.00017605    0.00018308    0.00017215
     atom   19 type  1   force =     0.00017605    0.00018308    0.00017215
     atom   20 type  1   force =    -0.00017604   -0.00018308    0.00017214
     atom   21 type  1   force =     0.00017604   -0.00018308    0.00017214
     atom   22 type  1   force =    -0.00017605    0.00018309    0.00017215
     atom   23 type  1   force =     0.00017605    0.00018309    0.00017215
     atom   24 type  1   force =    -0.00017604   -0.00018308    0.00017214

     Total force =     0.002487     Total SCF correction =     0.000009


     Computing stress (Cartesian axis) and pressure

          total   stress  (Ry/bohr**3)                   (kbar)     P=       43.76
   0.00029391   0.00000000   0.00000000           43.24        0.00        0.00
   0.00000000   0.00030426   0.00000000            0.00       44.76        0.00
   0.00000000   0.00000000   0.00029429            0.00        0.00       43.29

     Energy error            =      2.9E-05 Ry
     Gradient error          =      1.0E-03 Ry/Bohr

     number of scf cycles    =  11
     number of bfgs steps    =  10

     energy             old  =    -278.6708015275 Ry
     energy             new  =    -278.6708303667 Ry

     CASE: energy            _new < energy            _old

     new trust radius        =       0.0030972700 bohr
     new conv_thr            =       0.0000000010 Ry


ATOMIC_POSITIONS (crystal)
O                0.0000000000        0.6671026820        0.0584036504
O                0.0000000000        0.3328973208        0.5584036440
O                0.5000000000        0.1671026809        0.0584036504
O                0.5000000000        0.8328973222        0.5584036418
O                0.5000000000        0.8339856899        0.9345022308
O                0.5000000000        0.1660143094        0.4345022303
O                0.0000000000        0.3339856911        0.9345022312
O                0.0000000000        0.6660143061        0.4345022289
H                0.0000000000        0.6653127978        0.2041380386
H                0.0000000000        0.3346872038        0.7041380417
H                0.5000000000        0.1653127984        0.2041380391
H                0.5000000000        0.8346872039        0.7041380391
H                0.0000000000        0.5367983798        0.0134932675
H                0.0000000000        0.4632016157        0.5134932659
H                0.5000000000        0.0367983787        0.0134932688
H                0.5000000000        0.9632016181        0.5134932652
H                0.6911070687        0.7672735859        0.9837314174
H                0.3088929297        0.2327264151        0.4837314173
H                0.6911070703        0.2327264151        0.4837314173
H                0.3088929313        0.7672735859        0.9837314174
H                0.1911070687        0.2672735867        0.9837314170
H                0.8088929300        0.7327264130        0.4837314144
H                0.1911070700        0.7327264130        0.4837314144
H                0.8088929313        0.2672735867        0.9837314170



     Writing config-only to output data dir ./iceIh_vdw/iceIh_vdw.save/ :
     XML data file
     NEW-OLD atomic charge density approx. for the potential

     total cpu time spent up to now is     1029.7 secs

     per-process dynamical memory:    53.1 Mb

     Self-consistent Calculation

     iteration #  1     ecut=    90.00 Ry     beta= 0.70
     Davidson diagonalization with overlap
     ethr =  1.00E-06,  avg # of iterations =  2.0

     Threshold (ethr) on eigenvalues was too large:
     Diagonalizing with lowered threshold

     Davidson diagonalization with overlap
     ethr =  8.50E-09,  avg # of iterations =  3.0

     total cpu time spent up to now is     1048.0 secs

     total energy              =    -278.67084025 Ry
     estimated scf accuracy    <       0.00000638 Ry

     iteration #  2     ecut=    90.00 Ry     beta= 0.70
     Davidson diagonalization with overlap
     ethr =  9.97E-09,  avg # of iterations =  3.0

     total cpu time spent up to now is     1057.5 secs

     total energy              =    -278.67084126 Ry
     estimated scf accuracy    <       0.00000218 Ry

     iteration #  3     ecut=    90.00 Ry     beta= 0.70
     Davidson diagonalization with overlap
     ethr =  3.40E-09,  avg # of iterations =  3.1

     total cpu time spent up to now is     1067.1 secs

     total energy              =    -278.67084190 Ry
     estimated scf accuracy    <       0.00000017 Ry

     iteration #  4     ecut=    90.00 Ry     beta= 0.70
     Davidson diagonalization with overlap
     ethr =  2.62E-10,  avg # of iterations =  2.0

     total cpu time spent up to now is     1074.2 secs

     total energy              =    -278.67084190 Ry
     estimated scf accuracy    <       0.00000003 Ry

     iteration #  5     ecut=    90.00 Ry     beta= 0.70
     Davidson diagonalization with overlap
     ethr =  4.46E-11,  avg # of iterations =  4.3

     total cpu time spent up to now is     1085.4 secs

     total energy              =    -278.67084191 Ry
     estimated scf accuracy    <       0.00000002 Ry

     iteration #  6     ecut=    90.00 Ry     beta= 0.70
     Davidson diagonalization with overlap
     ethr =  2.89E-11,  avg # of iterations =  2.9

     total cpu time spent up to now is     1093.6 secs

     End of self-consistent calculation

     Number of k-points >= 100: set verbosity='high' to print the bands.

     highest occupied level (ev):    -2.8656

!    total energy              =    -278.67084192 Ry
     estimated scf accuracy    <          3.4E-10 Ry

     The total energy is the sum of the following terms:
     one-electron contribution =    -218.47613141 Ry
     hartree contribution      =     132.16411975 Ry
     xc contribution           =     -70.91100705 Ry
     ewald contribution        =    -121.44782321 Ry

     convergence has been achieved in   6 iterations

     Forces acting on atoms (cartesian axes, Ry/au):

     atom    1 type  2   force =     0.00000000   -0.00052717    0.00019442
     atom    2 type  2   force =     0.00000000    0.00052709    0.00019455
     atom    3 type  2   force =     0.00000000   -0.00052717    0.00019443
     atom    4 type  2   force =     0.00000000    0.00052709    0.00019455
     atom    5 type  2   force =     0.00000000   -0.00062001   -0.00039027
     atom    6 type  2   force =     0.00000000    0.00062003   -0.00039025
     atom    7 type  2   force =     0.00000000   -0.00062001   -0.00039027
     atom    8 type  2   force =     0.00000000    0.00062003   -0.00039025
     atom    9 type  1   force =     0.00000000    0.00012852    0.00017173
     atom   10 type  1   force =     0.00000000   -0.00012852    0.00017164
     atom   11 type  1   force =     0.00000000    0.00012852    0.00017172
     atom   12 type  1   force =     0.00000000   -0.00012852    0.00017164
     atom   13 type  1   force =     0.00000000   -0.00028012   -0.00015831
     atom   14 type  1   force =     0.00000000    0.00028019   -0.00015833
     atom   15 type  1   force =     0.00000000   -0.00028012   -0.00015831
     atom   16 type  1   force =     0.00000000    0.00028019   -0.00015833
     atom   17 type  1   force =    -0.00018574   -0.00016708    0.00009121
     atom   18 type  1   force =     0.00018575    0.00016707    0.00009120
     atom   19 type  1   force =    -0.00018575    0.00016707    0.00009120
     atom   20 type  1   force =     0.00018574   -0.00016708    0.00009121
     atom   21 type  1   force =    -0.00018574   -0.00016708    0.00009121
     atom   22 type  1   force =     0.00018575    0.00016707    0.00009120
     atom   23 type  1   force =    -0.00018575    0.00016707    0.00009120
     atom   24 type  1   force =     0.00018574   -0.00016708    0.00009121

     Total force =     0.002139     Total SCF correction =     0.000022


     Computing stress (Cartesian axis) and pressure

          total   stress  (Ry/bohr**3)                   (kbar)     P=       43.74
   0.00029462   0.00000000   0.00000000           43.34        0.00        0.00
   0.00000000   0.00030287  -0.00000000            0.00       44.55       -0.00
   0.00000000  -0.00000000   0.00029458            0.00       -0.00       43.33

     Energy error            =      1.2E-05 Ry
     Gradient error          =      6.2E-04 Ry/Bohr

     bfgs converged in  12 scf cycles and  11 bfgs steps
     (criteria: energy <  1.0E-04 Ry, force <  1.0E-03 Ry/Bohr)

     End of BFGS Geometry Optimization

     Final energy             =    -278.6708419177 Ry

     File ./iceIh_vdw/iceIh_vdw.bfgs deleted, as requested
Begin final coordinates

ATOMIC_POSITIONS (crystal)
O                0.0000000000        0.6671026820        0.0584036504
O                0.0000000000        0.3328973208        0.5584036440
O                0.5000000000        0.1671026809        0.0584036504
O                0.5000000000        0.8328973222        0.5584036418
O                0.5000000000        0.8339856899        0.9345022308
O                0.5000000000        0.1660143094        0.4345022303
O                0.0000000000        0.3339856911        0.9345022312
O                0.0000000000        0.6660143061        0.4345022289
H                0.0000000000        0.6653127978        0.2041380386
H                0.0000000000        0.3346872038        0.7041380417
H                0.5000000000        0.1653127984        0.2041380391
H                0.5000000000        0.8346872039        0.7041380391
H                0.0000000000        0.5367983798        0.0134932675
H                0.0000000000        0.4632016157        0.5134932659
H                0.5000000000        0.0367983787        0.0134932688
H                0.5000000000        0.9632016181        0.5134932652
H                0.6911070687        0.7672735859        0.9837314174
H                0.3088929297        0.2327264151        0.4837314173
H                0.6911070703        0.2327264151        0.4837314173
H                0.3088929313        0.7672735859        0.9837314174
H                0.1911070687        0.2672735867        0.9837314170
H                0.8088929300        0.7327264130        0.4837314144
H                0.1911070700        0.7327264130        0.4837314144
H                0.8088929313        0.2672735867        0.9837314170
End final coordinates



     Writing all to output data dir ./iceIh_vdw/iceIh_vdw.save/ :
     XML data file, charge density, pseudopotentials, collected wavefunctions

     init_run     :      5.72s CPU      5.82s WALL (       1 calls)
     electrons    :    977.71s CPU    996.67s WALL (      12 calls)
     update_pot   :      0.65s CPU      0.76s WALL (      11 calls)
     forces       :      5.95s CPU      5.99s WALL (      12 calls)
     stress       :     89.74s CPU     89.88s WALL (      12 calls)

     Called by init_run:
     wfcinit      :      3.72s CPU      3.76s WALL (       1 calls)
     potinit      :      1.58s CPU      1.62s WALL (       1 calls)
     hinit0       :      0.34s CPU      0.35s WALL (       1 calls)

     Called by electrons:
     c_bands      :    871.84s CPU    886.40s WALL (      99 calls)
     sum_band     :     99.93s CPU    100.90s WALL (      99 calls)
     v_of_rho     :      7.53s CPU      8.26s WALL (     105 calls)
     newd         :      0.19s CPU      0.23s WALL (     105 calls)
     mix_rho      :      0.16s CPU      0.16s WALL (      99 calls)
     vdW_kernel   :      1.51s CPU      1.52s WALL (       1 calls)

     Called by c_bands:
     init_us_2    :     11.60s CPU     12.00s WALL (   25645 calls)
     cegterg      :    842.79s CPU    851.26s WALL (   11385 calls)

     Called by *egterg:
     cdiaghg      :     78.56s CPU     78.99s WALL (   45046 calls)
     h_psi        :    634.34s CPU    641.67s WALL (   47116 calls)
     s_psi        :     24.85s CPU     25.07s WALL (   47116 calls)
     g_psi        :      2.14s CPU      2.15s WALL (   35616 calls)

     Called by h_psi:
     h_psi:calbec :     38.07s CPU     38.48s WALL (   47116 calls)
     vloc_psi     :    566.03s CPU    572.60s WALL (   47116 calls)
     add_vuspsi   :     26.43s CPU     26.72s WALL (   47116 calls)

     General routines
     calbec       :     52.19s CPU     52.75s WALL (   65401 calls)
     fft          :      3.64s CPU      3.72s WALL (    7046 calls)
     ffts         :      0.05s CPU      0.05s WALL (      99 calls)
     fftw         :    591.75s CPU    598.38s WALL ( 2754448 calls)

     Parallel routines

     PWSCF        :  18m 3.56s CPU  18m32.36s WALL


   This run was terminated on:  18:25:54   1Apr2026            

=------------------------------------------------------------------------------=
   JOB DONE.
=------------------------------------------------------------------------------=
