
     Program PWSCF v.7.3.1 starts on 26Mar2026 at 15:58: 4 

     This program is part of the open-source Quantum ESPRESSO suite
     for quantum simulation of materials; please cite
         "P. Giannozzi et al., J. Phys.:Condens. Matter 21 395502 (2009);
         "P. Giannozzi et al., J. Phys.:Condens. Matter 29 465901 (2017);
         "P. Giannozzi et al., J. Chem. Phys. 152 154105 (2020);
          URL http://www.quantum-espresso.org", 
     in publications or presentations arising from this work. More details at
     http://www.quantum-espresso.org/quote

     Parallel version (MPI), running on   128 processors

     MPI processes distributed on     1 nodes
     243483 MiB available memory on the printing compute node when the environment starts

     Waiting for input...
     Reading input from standard input

     Current dimensions of program PWSCF are:
     Max number of different atomic species (ntypx) = 10
     Max number of k-points (npk) =  40000
     Max angular momentum in pseudopotentials (lmaxx) =  4

     IMPORTANT: XC functional enforced from input :
     Exchange-correlation= VDW-DF2
                           (   1   4  13   0   2   0   0)
     Any further DFT definition will be discarded
     Please, verify this is what you really want

     Found identity + ( -0.5000 -0.5000 -0.0000) symmetry
     This is a supercell, fractional translations are disabled

     K-points division:     npool     =       4
     R & G space division:  proc/nbgrp/npool/nimage =      32
     Subspace diagonalization in iterative solution of the eigenvalue problem:
     a serial algorithm will be used


     Parallelization info
     --------------------
     sticks:   dense  smooth     PW     G-vecs:    dense   smooth      PW
     Min         100     100     27                 5294     5294     769
     Max         101     101     28                 5299     5299     776
     Sum        3221    3221    889               169511   169511   24729

     Using Slab Decomposition



     bravais-lattice index     =            8
     lattice parameter (alat)  =       8.0481  a.u.
     unit-cell volume          =    1469.7521 (a.u.)^3
     number of atoms/cell      =           24
     number of atomic types    =            2
     number of electrons       =        64.00
     number of Kohn-Sham states=           32
     kinetic-energy cutoff     =      90.0000  Ry
     charge density cutoff     =     360.0000  Ry
     scf convergence threshold =      1.0E-07
     mixing beta               =       0.7000
     number of iterations used =            8  plain     mixing
     Exchange-correlation= VDW-DF2
                           (   1   4  13   0   2   0   0)

     celldm(1)=   8.048139  celldm(2)=   1.732119  celldm(3)=   1.627721
     celldm(4)=   0.000000  celldm(5)=   0.000000  celldm(6)=   0.000000

     crystal axes: (cart. coord. in units of alat)
               a(1) = (   1.000000   0.000000   0.000000 )  
               a(2) = (   0.000000   1.732119   0.000000 )  
               a(3) = (   0.000000   0.000000   1.627721 )  

     reciprocal axes: (cart. coord. in units 2 pi/alat)
               b(1) = (  1.000000  0.000000  0.000000 )  
               b(2) = (  0.000000  0.577328  0.000000 )  
               b(3) = (  0.000000  0.000000  0.614356 )  


     PseudoPot. # 1 for H  read from file:
     ./H.pbe-van_ak.UPF
     MD5 check sum: 077eb6d537518a38cb46c6de387227b7
     Pseudo is Ultrasoft, Zval =  1.0
     Generated by new atomic code, or converted to UPF format
     Using radial grid of  615 points,  1 beta functions with: 
                l(1) =   0
     Q(r) pseudized with  8 coefficients,  rinner =    0.800

     PseudoPot. # 2 for O  read from file:
     ./O.pbe-van_ak.UPF
     MD5 check sum: 78c19812648e8988a0fe644b0f25305e
     Pseudo is Ultrasoft, Zval =  6.0
     Generated by new atomic code, or converted to UPF format
     Using radial grid of  737 points,  4 beta functions with: 
                l(1) =   0
                l(2) =   0
                l(3) =   1
                l(4) =   1
     Q(r) pseudized with  8 coefficients,  rinner =    0.800   0.800   0.800


     atomic species   valence    mass     pseudopotential
     H                 1.00     1.00800     H ( 1.00)
     O                 6.00    16.00000     O ( 1.00)

      2 Sym. Ops. (no inversion) found



   Cartesian axes

     site n.     atom                  positions (alat units)
         1        O      tau(   1) = (   0.0000000   1.1505053   0.0983911  )
         2        O      tau(   2) = (   0.0000000   0.5816137   0.9122516  )
         3        O      tau(   3) = (   0.5000000   0.2844458   0.0983911  )
         4        O      tau(   4) = (   0.5000000   1.4476733   0.9122516  )
         5        O      tau(   5) = (   0.5000000   1.4413210   1.5245781  )
         6        O      tau(   6) = (   0.5000000   0.2907980   0.7107175  )
         7        O      tau(   7) = (   0.0000000   0.5752615   1.5245780  )
         8        O      tau(   8) = (   0.0000000   1.1568575   0.7107175  )
         9        H      tau(   9) = (   0.0000000   1.1476935   0.3199225  )
        10        H      tau(  10) = (   0.0000000   0.5844255   1.1337830  )
        11        H      tau(  11) = (   0.5000000   0.2816340   0.3199225  )
        12        H      tau(  12) = (   0.5000000   1.4504851   1.1337830  )
        13        H      tau(  13) = (   0.0000000   0.9389577   0.0320281  )
        14        H      tau(  14) = (   0.0000000   0.7931613   0.8458886  )
        15        H      tau(  15) = (   0.5000000   0.0728982   0.0320281  )
        16        H      tau(  16) = (   0.5000000   1.6592209   0.8458886  )
        17        H      tau(  17) = (   0.6777387   1.3318248   1.5989889  )
        18        H      tau(  18) = (   0.3222613   0.4002942   0.7851284  )
        19        H      tau(  19) = (   0.6777387   0.4002942   0.7851284  )
        20        H      tau(  20) = (   0.3222613   1.3318248   1.5989889  )
        21        H      tau(  21) = (   0.1777387   0.4657653   1.5989889  )
        22        H      tau(  22) = (   0.8222613   1.2663538   0.7851284  )
        23        H      tau(  23) = (   0.1777387   1.2663538   0.7851284  )
        24        H      tau(  24) = (   0.8222613   0.4657653   1.5989889  )

     number of k points=   460

     Number of k-points >= 100: set verbosity='high' to print them.

     Dense  grid:   169511 G-vectors     FFT dimensions: (  50,  90,  80)

     Estimated max dynamical RAM per process >      44.63 MB

     Estimated total dynamical RAM >       5.46 GB

     Initial potential from superposition of free atoms

     starting charge      63.9998, renormalised to      64.0000


     %%%%%%%%%%%%%%%%%%%%%%%%%%%%%%%%%%%%%%%%%%%%%%%%%%%%%%%%%%%%%%%%%%%%%%%%
     %                                                                      %
     % You are using vdW-DF, which was implemented by the Thonhauser group. %
     % Please cite the following two papers that made this development      %
     % possible and the two reviews that describe the various versions:     %
     %                                                                      %
     %   T. Thonhauser et al., PRL 115, 136402 (2015).                      %
     %   T. Thonhauser et al., PRB 76, 125112 (2007).                       %
     %   K. Berland et al., Rep. Prog. Phys. 78, 066501 (2015).             %
     %   D.C. Langreth et al., J. Phys.: Condens. Matter 21, 084203 (2009). %
     %                                                                      %
     % If you are calculating stress with vdW-DF, please also cite:         %
     %                                                                      %
     %   R. Sabatini et al., J. Phys.: Condens. Matter 24, 424209 (2012).   %
     %                                                                      %
     %%%%%%%%%%%%%%%%%%%%%%%%%%%%%%%%%%%%%%%%%%%%%%%%%%%%%%%%%%%%%%%%%%%%%%%%

     %%%%%%%%%%%%%%%%%%%%%%%%%%%%%%%%%%%%%%%%%%%%%%%%%%%%%%%%%%%%%%%%%%%%%%%%
     %                                                                      %
     %  vdW-DF NEWS:                                                        %
     %                                                                      %
     %  * vdW-DF3 is now available. DOI: 10.1021/acs.jctc.0c00471           %
     %    use with input_dft = 'vdW-DF3-opt1' or 'vdW-DF3-opt2'             %
     %                                                                      %
     %  * Unscreened and range-separated hybrid vdW-DF-cx functionals       %
     %    DOI: 10.1063/1.4986522 and 10.1088/1361-648X/ac2ad2               %
     %    use with input_dft = 'vdW-DF-cx0'    and 'vdW-DF-ahcx'            %
     %  * Unscreened and range-separated hybrid vdW-DF2-b86r functionals    %
     %    DOI: 10.1063/1.4986522 and DOI: 10.1103/PhysRevX.12.041003        %
     %    use with input_dft = 'vdW-DF2-br0' and 'vdW-DF2-ahbr'             %
     %                                                                      %
     %%%%%%%%%%%%%%%%%%%%%%%%%%%%%%%%%%%%%%%%%%%%%%%%%%%%%%%%%%%%%%%%%%%%%%%%


     Starting wfcs are   48 randomized atomic wfcs

     total cpu time spent up to now is       19.3 secs

     per-process dynamical memory:    52.4 Mb

     Self-consistent Calculation

     iteration #  1     ecut=    90.00 Ry     beta= 0.70
     Davidson diagonalization with overlap
     ethr =  1.00E-02,  avg # of iterations =  2.0

     total cpu time spent up to now is       27.6 secs

     total energy              =    -277.11879004 Ry
     estimated scf accuracy    <       3.48315708 Ry

     iteration #  2     ecut=    90.00 Ry     beta= 0.70
     Davidson diagonalization with overlap
     ethr =  5.44E-03,  avg # of iterations =  3.0

     total cpu time spent up to now is       38.8 secs

     total energy              =    -278.25699704 Ry
     estimated scf accuracy    <       1.95001634 Ry

     iteration #  3     ecut=    90.00 Ry     beta= 0.70
     Davidson diagonalization with overlap
     ethr =  3.05E-03,  avg # of iterations =  2.0

     total cpu time spent up to now is       47.2 secs

     total energy              =    -278.53362222 Ry
     estimated scf accuracy    <       0.06945043 Ry

     iteration #  4     ecut=    90.00 Ry     beta= 0.70
     Davidson diagonalization with overlap
     ethr =  1.09E-04,  avg # of iterations =  4.0

     total cpu time spent up to now is       60.0 secs

     total energy              =    -278.58638171 Ry
     estimated scf accuracy    <       0.09153692 Ry

     iteration #  5     ecut=    90.00 Ry     beta= 0.70
     Davidson diagonalization with overlap
     ethr =  1.09E-04,  avg # of iterations =  2.0

     total cpu time spent up to now is       67.7 secs

     total energy              =    -278.59017073 Ry
     estimated scf accuracy    <       0.01213653 Ry

     iteration #  6     ecut=    90.00 Ry     beta= 0.70
     Davidson diagonalization with overlap
     ethr =  1.90E-05,  avg # of iterations =  2.0

     total cpu time spent up to now is       76.0 secs

     total energy              =    -278.59052038 Ry
     estimated scf accuracy    <       0.00225001 Ry

     iteration #  7     ecut=    90.00 Ry     beta= 0.70
     Davidson diagonalization with overlap
     ethr =  3.52E-06,  avg # of iterations =  3.0

     total cpu time spent up to now is       87.2 secs

     total energy              =    -278.59184717 Ry
     estimated scf accuracy    <       0.00191414 Ry

     iteration #  8     ecut=    90.00 Ry     beta= 0.70
     Davidson diagonalization with overlap
     ethr =  2.99E-06,  avg # of iterations =  1.0

     total cpu time spent up to now is       93.4 secs

     total energy              =    -278.59180052 Ry
     estimated scf accuracy    <       0.00049155 Ry

     iteration #  9     ecut=    90.00 Ry     beta= 0.70
     Davidson diagonalization with overlap
     ethr =  7.68E-07,  avg # of iterations =  2.0

     total cpu time spent up to now is      101.9 secs

     total energy              =    -278.59189525 Ry
     estimated scf accuracy    <       0.00003820 Ry

     iteration # 10     ecut=    90.00 Ry     beta= 0.70
     Davidson diagonalization with overlap
     ethr =  5.97E-08,  avg # of iterations =  1.9

     total cpu time spent up to now is      108.8 secs

     total energy              =    -278.59189538 Ry
     estimated scf accuracy    <       0.00001000 Ry

     iteration # 11     ecut=    90.00 Ry     beta= 0.70
     Davidson diagonalization with overlap
     ethr =  1.56E-08,  avg # of iterations =  2.0

     total cpu time spent up to now is      116.6 secs

     total energy              =    -278.59189524 Ry
     estimated scf accuracy    <       0.00000286 Ry

     iteration # 12     ecut=    90.00 Ry     beta= 0.70
     Davidson diagonalization with overlap
     ethr =  4.47E-09,  avg # of iterations =  2.0

     total cpu time spent up to now is      125.5 secs

     total energy              =    -278.59189584 Ry
     estimated scf accuracy    <       0.00000011 Ry

     iteration # 13     ecut=    90.00 Ry     beta= 0.70
     Davidson diagonalization with overlap
     ethr =  1.73E-10,  avg # of iterations =  4.5

     total cpu time spent up to now is      138.6 secs

     total energy              =    -278.59189589 Ry
     estimated scf accuracy    <       0.00000021 Ry

     iteration # 14     ecut=    90.00 Ry     beta= 0.70
     Davidson diagonalization with overlap
     ethr =  1.73E-10,  avg # of iterations =  3.0

     total cpu time spent up to now is      148.3 secs

     End of self-consistent calculation

     Number of k-points >= 100: set verbosity='high' to print the bands.

     highest occupied level (ev):    -3.1584

!    total energy              =    -278.59189592 Ry
     estimated scf accuracy    <          2.6E-09 Ry

     The total energy is the sum of the following terms:
     one-electron contribution =    -226.73023987 Ry
     hartree contribution      =     135.74829609 Ry
     xc contribution           =     -71.61331628 Ry
     ewald contribution        =    -115.99663586 Ry

     convergence has been achieved in  14 iterations

     Forces acting on atoms (cartesian axes, Ry/au):

     atom    1 type  2   force =     0.00000000    0.08692438   -0.06337348
     atom    2 type  2   force =     0.00000000   -0.08692469   -0.06337342
     atom    3 type  2   force =     0.00000000    0.08692418   -0.06337325
     atom    4 type  2   force =     0.00000000   -0.08692414   -0.06337311
     atom    5 type  2   force =     0.00000000    0.08723391   -0.06100599
     atom    6 type  2   force =     0.00000000   -0.08723386   -0.06100588
     atom    7 type  2   force =     0.00000000    0.08723361   -0.06100585
     atom    8 type  2   force =     0.00000000   -0.08723356   -0.06100569
     atom    9 type  1   force =     0.00000000    0.00397179    0.09820727
     atom   10 type  1   force =     0.00000000   -0.00397177    0.09820710
     atom   11 type  1   force =     0.00000000    0.00397178    0.09820711
     atom   12 type  1   force =     0.00000000   -0.00397177    0.09820705
     atom   13 type  1   force =     0.00000000   -0.09091316   -0.03443974
     atom   14 type  1   force =     0.00000000    0.09091325   -0.03443975
     atom   15 type  1   force =     0.00000000   -0.09091312   -0.03443971
     atom   16 type  1   force =     0.00000000    0.09091309   -0.03443970
     atom   17 type  1   force =     0.08182754   -0.04485842    0.03030586
     atom   18 type  1   force =    -0.08182751    0.04485843    0.03030586
     atom   19 type  1   force =     0.08182751    0.04485843    0.03030586
     atom   20 type  1   force =    -0.08182754   -0.04485842    0.03030586
     atom   21 type  1   force =     0.08182758   -0.04485846    0.03030589
     atom   22 type  1   force =    -0.08182761    0.04485850    0.03030591
     atom   23 type  1   force =     0.08182761    0.04485850    0.03030591
     atom   24 type  1   force =    -0.08182758   -0.04485846    0.03030589

     Total force =     0.495048     Total SCF correction =     0.000037


     Computing stress (Cartesian axis) and pressure

          total   stress  (Ry/bohr**3)                   (kbar)     P=      143.72
   0.00096369   0.00000000   0.00000000          141.76        0.00        0.00
   0.00000000   0.00100198  -0.00000000            0.00      147.40       -0.00
   0.00000000  -0.00000000   0.00096523            0.00       -0.00      141.99


     Writing all to output data dir ./iceIh/iceIh.save/ :
     XML data file, charge density, pseudopotentials, collected wavefunctions

     init_run     :      5.79s CPU      8.31s WALL (       1 calls)
     electrons    :    126.81s CPU    129.04s WALL (       1 calls)
     forces       :      0.50s CPU      0.51s WALL (       1 calls)
     stress       :      7.56s CPU      7.59s WALL (       1 calls)

     Called by init_run:
     wfcinit      :      3.75s CPU      6.12s WALL (       1 calls)
     potinit      :      1.62s CPU      1.68s WALL (       1 calls)
     hinit0       :      0.35s CPU      0.42s WALL (       1 calls)

     Called by electrons:
     c_bands      :    111.62s CPU    113.56s WALL (      14 calls)
     sum_band     :     14.26s CPU     14.42s WALL (      14 calls)
     v_of_rho     :      2.43s CPU      2.56s WALL (      15 calls)
     newd         :      0.04s CPU      0.05s WALL (      15 calls)
     mix_rho      :      0.04s CPU      0.04s WALL (      14 calls)
     vdW_kernel   :      1.55s CPU      1.59s WALL (       1 calls)

     Called by c_bands:
     init_us_2    :      1.64s CPU      1.70s WALL (    3565 calls)
     cegterg      :    108.39s CPU    109.60s WALL (    1610 calls)

     Called by *egterg:
     cdiaghg      :      9.42s CPU     11.74s WALL (    5632 calls)
     h_psi        :     85.46s CPU     86.63s WALL (    5747 calls)
     s_psi        :      3.25s CPU      3.28s WALL (    5747 calls)
     g_psi        :      0.29s CPU      0.29s WALL (    4022 calls)

     Called by h_psi:
     h_psi:calbec :      5.01s CPU      5.10s WALL (    5747 calls)
     vloc_psi     :     76.43s CPU     77.47s WALL (    5747 calls)
     add_vuspsi   :      3.43s CPU      3.46s WALL (    5747 calls)

     General routines
     calbec       :      6.60s CPU      6.71s WALL (    7932 calls)
     fft          :      0.78s CPU      0.86s WALL (     967 calls)
     ffts         :      0.01s CPU      0.01s WALL (      14 calls)
     fftw         :     80.41s CPU     81.44s WALL (  371158 calls)

     Parallel routines

     PWSCF        :   2m25.30s CPU   2m40.43s WALL


   This run was terminated on:  16: 0:44  26Mar2026            

=------------------------------------------------------------------------------=
   JOB DONE.
=------------------------------------------------------------------------------=
