
     Program PWSCF v.7.3.1 starts on 26Mar2026 at 16: 3:18 

     This program is part of the open-source Quantum ESPRESSO suite
     for quantum simulation of materials; please cite
         "P. Giannozzi et al., J. Phys.:Condens. Matter 21 395502 (2009);
         "P. Giannozzi et al., J. Phys.:Condens. Matter 29 465901 (2017);
         "P. Giannozzi et al., J. Chem. Phys. 152 154105 (2020);
          URL http://www.quantum-espresso.org", 
     in publications or presentations arising from this work. More details at
     http://www.quantum-espresso.org/quote

     Parallel version (MPI), running on   128 processors

     MPI processes distributed on     1 nodes
     237661 MiB available memory on the printing compute node when the environment starts

     Waiting for input...
     Reading input from standard input

     Current dimensions of program PWSCF are:
     Max number of different atomic species (ntypx) = 10
     Max number of k-points (npk) =  40000
     Max angular momentum in pseudopotentials (lmaxx) =  4

     IMPORTANT: XC functional enforced from input :
     Exchange-correlation= VDW-DF2
                           (   1   4  13   0   2   0   0)
     Any further DFT definition will be discarded
     Please, verify this is what you really want

     Found identity + ( -0.5000 -0.5000 -0.0000) symmetry
     This is a supercell, fractional translations are disabled

     K-points division:     npool     =       4
     R & G space division:  proc/nbgrp/npool/nimage =      32
     Subspace diagonalization in iterative solution of the eigenvalue problem:
     a serial algorithm will be used


     Parallelization info
     --------------------
     sticks:   dense  smooth     PW     G-vecs:    dense   smooth      PW
     Min         101     101     27                 5365     5365     777
     Max         102     102     28                 5372     5372     784
     Sum        3241    3241    889               171723   171723   24989

     Using Slab Decomposition



     bravais-lattice index     =            8
     lattice parameter (alat)  =       8.0822  a.u.
     unit-cell volume          =    1488.4749 (a.u.)^3
     number of atoms/cell      =           24
     number of atomic types    =            2
     number of electrons       =        64.00
     number of Kohn-Sham states=           32
     kinetic-energy cutoff     =      90.0000  Ry
     charge density cutoff     =     360.0000  Ry
     scf convergence threshold =      1.0E-07
     mixing beta               =       0.7000
     number of iterations used =            8  plain     mixing
     Exchange-correlation= VDW-DF2
                           (   1   4  13   0   2   0   0)

     celldm(1)=   8.082169  celldm(2)=   1.732119  celldm(3)=   1.627721
     celldm(4)=   0.000000  celldm(5)=   0.000000  celldm(6)=   0.000000

     crystal axes: (cart. coord. in units of alat)
               a(1) = (   1.000000   0.000000   0.000000 )  
               a(2) = (   0.000000   1.732119   0.000000 )  
               a(3) = (   0.000000   0.000000   1.627721 )  

     reciprocal axes: (cart. coord. in units 2 pi/alat)
               b(1) = (  1.000000  0.000000  0.000000 )  
               b(2) = (  0.000000  0.577328  0.000000 )  
               b(3) = (  0.000000  0.000000  0.614356 )  


     PseudoPot. # 1 for H  read from file:
     ./H.pbe-van_ak.UPF
     MD5 check sum: 077eb6d537518a38cb46c6de387227b7
     Pseudo is Ultrasoft, Zval =  1.0
     Generated by new atomic code, or converted to UPF format
     Using radial grid of  615 points,  1 beta functions with: 
                l(1) =   0
     Q(r) pseudized with  8 coefficients,  rinner =    0.800

     PseudoPot. # 2 for O  read from file:
     ./O.pbe-van_ak.UPF
     MD5 check sum: 78c19812648e8988a0fe644b0f25305e
     Pseudo is Ultrasoft, Zval =  6.0
     Generated by new atomic code, or converted to UPF format
     Using radial grid of  737 points,  4 beta functions with: 
                l(1) =   0
                l(2) =   0
                l(3) =   1
                l(4) =   1
     Q(r) pseudized with  8 coefficients,  rinner =    0.800   0.800   0.800


     atomic species   valence    mass     pseudopotential
     H                 1.00     1.00800     H ( 1.00)
     O                 6.00    16.00000     O ( 1.00)

      2 Sym. Ops. (no inversion) found



   Cartesian axes

     site n.     atom                  positions (alat units)
         1        O      tau(   1) = (   0.0000000   1.1505053   0.0983911  )
         2        O      tau(   2) = (   0.0000000   0.5816137   0.9122516  )
         3        O      tau(   3) = (   0.5000000   0.2844458   0.0983911  )
         4        O      tau(   4) = (   0.5000000   1.4476733   0.9122516  )
         5        O      tau(   5) = (   0.5000000   1.4413210   1.5245781  )
         6        O      tau(   6) = (   0.5000000   0.2907980   0.7107175  )
         7        O      tau(   7) = (   0.0000000   0.5752615   1.5245780  )
         8        O      tau(   8) = (   0.0000000   1.1568575   0.7107175  )
         9        H      tau(   9) = (   0.0000000   1.1476935   0.3199225  )
        10        H      tau(  10) = (   0.0000000   0.5844255   1.1337830  )
        11        H      tau(  11) = (   0.5000000   0.2816340   0.3199225  )
        12        H      tau(  12) = (   0.5000000   1.4504851   1.1337830  )
        13        H      tau(  13) = (   0.0000000   0.9389577   0.0320281  )
        14        H      tau(  14) = (   0.0000000   0.7931613   0.8458886  )
        15        H      tau(  15) = (   0.5000000   0.0728982   0.0320281  )
        16        H      tau(  16) = (   0.5000000   1.6592209   0.8458886  )
        17        H      tau(  17) = (   0.6777387   1.3318248   1.5989889  )
        18        H      tau(  18) = (   0.3222613   0.4002942   0.7851284  )
        19        H      tau(  19) = (   0.6777387   0.4002942   0.7851284  )
        20        H      tau(  20) = (   0.3222613   1.3318248   1.5989889  )
        21        H      tau(  21) = (   0.1777387   0.4657653   1.5989889  )
        22        H      tau(  22) = (   0.8222613   1.2663538   0.7851284  )
        23        H      tau(  23) = (   0.1777387   1.2663538   0.7851284  )
        24        H      tau(  24) = (   0.8222613   0.4657653   1.5989889  )

     number of k points=   460

     Number of k-points >= 100: set verbosity='high' to print them.

     Dense  grid:   171723 G-vectors     FFT dimensions: (  50,  90,  80)

     Estimated max dynamical RAM per process >      45.15 MB

     Estimated total dynamical RAM >       5.52 GB

     Initial potential from superposition of free atoms

     starting charge      63.9998, renormalised to      64.0000


     %%%%%%%%%%%%%%%%%%%%%%%%%%%%%%%%%%%%%%%%%%%%%%%%%%%%%%%%%%%%%%%%%%%%%%%%
     %                                                                      %
     % You are using vdW-DF, which was implemented by the Thonhauser group. %
     % Please cite the following two papers that made this development      %
     % possible and the two reviews that describe the various versions:     %
     %                                                                      %
     %   T. Thonhauser et al., PRL 115, 136402 (2015).                      %
     %   T. Thonhauser et al., PRB 76, 125112 (2007).                       %
     %   K. Berland et al., Rep. Prog. Phys. 78, 066501 (2015).             %
     %   D.C. Langreth et al., J. Phys.: Condens. Matter 21, 084203 (2009). %
     %                                                                      %
     % If you are calculating stress with vdW-DF, please also cite:         %
     %                                                                      %
     %   R. Sabatini et al., J. Phys.: Condens. Matter 24, 424209 (2012).   %
     %                                                                      %
     %%%%%%%%%%%%%%%%%%%%%%%%%%%%%%%%%%%%%%%%%%%%%%%%%%%%%%%%%%%%%%%%%%%%%%%%

     %%%%%%%%%%%%%%%%%%%%%%%%%%%%%%%%%%%%%%%%%%%%%%%%%%%%%%%%%%%%%%%%%%%%%%%%
     %                                                                      %
     %  vdW-DF NEWS:                                                        %
     %                                                                      %
     %  * vdW-DF3 is now available. DOI: 10.1021/acs.jctc.0c00471           %
     %    use with input_dft = 'vdW-DF3-opt1' or 'vdW-DF3-opt2'             %
     %                                                                      %
     %  * Unscreened and range-separated hybrid vdW-DF-cx functionals       %
     %    DOI: 10.1063/1.4986522 and 10.1088/1361-648X/ac2ad2               %
     %    use with input_dft = 'vdW-DF-cx0'    and 'vdW-DF-ahcx'            %
     %  * Unscreened and range-separated hybrid vdW-DF2-b86r functionals    %
     %    DOI: 10.1063/1.4986522 and DOI: 10.1103/PhysRevX.12.041003        %
     %    use with input_dft = 'vdW-DF2-br0' and 'vdW-DF2-ahbr'             %
     %                                                                      %
     %%%%%%%%%%%%%%%%%%%%%%%%%%%%%%%%%%%%%%%%%%%%%%%%%%%%%%%%%%%%%%%%%%%%%%%%


     Starting wfcs are   48 randomized atomic wfcs

     total cpu time spent up to now is        6.2 secs

     per-process dynamical memory:    53.0 Mb

     Self-consistent Calculation

     iteration #  1     ecut=    90.00 Ry     beta= 0.70
     Davidson diagonalization with overlap
     ethr =  1.00E-02,  avg # of iterations =  2.0

     total cpu time spent up to now is       14.6 secs

     total energy              =    -277.14232075 Ry
     estimated scf accuracy    <       3.45547307 Ry

     iteration #  2     ecut=    90.00 Ry     beta= 0.70
     Davidson diagonalization with overlap
     ethr =  5.40E-03,  avg # of iterations =  3.0

     total cpu time spent up to now is       25.8 secs

     total energy              =    -278.26953441 Ry
     estimated scf accuracy    <       1.97553414 Ry

     iteration #  3     ecut=    90.00 Ry     beta= 0.70
     Davidson diagonalization with overlap
     ethr =  3.09E-03,  avg # of iterations =  2.0

     total cpu time spent up to now is       34.3 secs

     total energy              =    -278.55015078 Ry
     estimated scf accuracy    <       0.07075857 Ry

     iteration #  4     ecut=    90.00 Ry     beta= 0.70
     Davidson diagonalization with overlap
     ethr =  1.11E-04,  avg # of iterations =  4.0

     total cpu time spent up to now is       47.1 secs

     total energy              =    -278.60401428 Ry
     estimated scf accuracy    <       0.09382373 Ry

     iteration #  5     ecut=    90.00 Ry     beta= 0.70
     Davidson diagonalization with overlap
     ethr =  1.11E-04,  avg # of iterations =  2.0

     total cpu time spent up to now is       54.8 secs

     total energy              =    -278.60745147 Ry
     estimated scf accuracy    <       0.01245013 Ry

     iteration #  6     ecut=    90.00 Ry     beta= 0.70
     Davidson diagonalization with overlap
     ethr =  1.95E-05,  avg # of iterations =  2.0

     total cpu time spent up to now is       63.2 secs

     total energy              =    -278.60851242 Ry
     estimated scf accuracy    <       0.00163365 Ry

     iteration #  7     ecut=    90.00 Ry     beta= 0.70
     Davidson diagonalization with overlap
     ethr =  2.55E-06,  avg # of iterations =  3.9

     total cpu time spent up to now is       75.1 secs

     total energy              =    -278.60969696 Ry
     estimated scf accuracy    <       0.00232375 Ry

     iteration #  8     ecut=    90.00 Ry     beta= 0.70
     Davidson diagonalization with overlap
     ethr =  2.55E-06,  avg # of iterations =  1.1

     total cpu time spent up to now is       81.6 secs

     total energy              =    -278.60949973 Ry
     estimated scf accuracy    <       0.00077276 Ry

     iteration #  9     ecut=    90.00 Ry     beta= 0.70
     Davidson diagonalization with overlap
     ethr =  1.21E-06,  avg # of iterations =  2.0

     total cpu time spent up to now is       90.1 secs

     total energy              =    -278.60964994 Ry
     estimated scf accuracy    <       0.00003866 Ry

     iteration # 10     ecut=    90.00 Ry     beta= 0.70
     Davidson diagonalization with overlap
     ethr =  6.04E-08,  avg # of iterations =  2.1

     total cpu time spent up to now is       97.6 secs

     total energy              =    -278.60965178 Ry
     estimated scf accuracy    <       0.00000823 Ry

     iteration # 11     ecut=    90.00 Ry     beta= 0.70
     Davidson diagonalization with overlap
     ethr =  1.29E-08,  avg # of iterations =  3.0

     total cpu time spent up to now is      107.2 secs

     total energy              =    -278.60965391 Ry
     estimated scf accuracy    <       0.00000029 Ry

     iteration # 12     ecut=    90.00 Ry     beta= 0.70
     Davidson diagonalization with overlap
     ethr =  4.49E-10,  avg # of iterations =  4.0

     total cpu time spent up to now is      117.6 secs

     End of self-consistent calculation

     Number of k-points >= 100: set verbosity='high' to print the bands.

     highest occupied level (ev):    -3.2196

!    total energy              =    -278.60965406 Ry
     estimated scf accuracy    <       0.00000003 Ry

     The total energy is the sum of the following terms:
     one-electron contribution =    -227.64615702 Ry
     hartree contribution      =     136.07612390 Ry
     xc contribution           =     -71.53139197 Ry
     ewald contribution        =    -115.50822897 Ry

     convergence has been achieved in  12 iterations

     Forces acting on atoms (cartesian axes, Ry/au):

     atom    1 type  2   force =     0.00000000    0.07916008   -0.05761130
     atom    2 type  2   force =     0.00000000   -0.07916014   -0.05761113
     atom    3 type  2   force =     0.00000000    0.07916008   -0.05761126
     atom    4 type  2   force =     0.00000000   -0.07916000   -0.05761116
     atom    5 type  2   force =     0.00000000    0.07943217   -0.05565003
     atom    6 type  2   force =     0.00000000   -0.07943212   -0.05564997
     atom    7 type  2   force =     0.00000000    0.07943213   -0.05564999
     atom    8 type  2   force =     0.00000000   -0.07943215   -0.05564999
     atom    9 type  1   force =     0.00000000    0.00372236    0.08954725
     atom   10 type  1   force =     0.00000000   -0.00372237    0.08954719
     atom   11 type  1   force =     0.00000000    0.00372236    0.08954721
     atom   12 type  1   force =     0.00000000   -0.00372237    0.08954720
     atom   13 type  1   force =     0.00000000   -0.08297358   -0.03153563
     atom   14 type  1   force =     0.00000000    0.08297366   -0.03153564
     atom   15 type  1   force =     0.00000000   -0.08297359   -0.03153563
     atom   16 type  1   force =     0.00000000    0.08297362   -0.03153563
     atom   17 type  1   force =     0.07470009   -0.04095835    0.02762482
     atom   18 type  1   force =    -0.07470006    0.04095831    0.02762481
     atom   19 type  1   force =     0.07470006    0.04095831    0.02762481
     atom   20 type  1   force =    -0.07470009   -0.04095835    0.02762482
     atom   21 type  1   force =     0.07470008   -0.04095834    0.02762482
     atom   22 type  1   force =    -0.07470004    0.04095831    0.02762480
     atom   23 type  1   force =     0.07470004    0.04095831    0.02762480
     atom   24 type  1   force =    -0.07470008   -0.04095834    0.02762482

     Total force =     0.451420     Total SCF correction =     0.000163


     Computing stress (Cartesian axis) and pressure

          total   stress  (Ry/bohr**3)                   (kbar)     P=      129.69
   0.00086904   0.00000000   0.00000000          127.84        0.00        0.00
   0.00000000   0.00090491  -0.00000000            0.00      133.12       -0.00
   0.00000000  -0.00000000   0.00087084            0.00       -0.00      128.11


     Writing all to output data dir ./iceIh/iceIh.save/ :
     XML data file, charge density, pseudopotentials, collected wavefunctions

     init_run     :      5.79s CPU      5.89s WALL (       1 calls)
     electrons    :    109.60s CPU    111.48s WALL (       1 calls)
     forces       :      0.64s CPU      0.64s WALL (       1 calls)
     stress       :      7.65s CPU      7.67s WALL (       1 calls)

     Called by init_run:
     wfcinit      :      3.78s CPU      3.83s WALL (       1 calls)
     potinit      :      1.58s CPU      1.62s WALL (       1 calls)
     hinit0       :      0.35s CPU      0.35s WALL (       1 calls)

     Called by electrons:
     c_bands      :     96.59s CPU     98.14s WALL (      12 calls)
     sum_band     :     12.25s CPU     12.38s WALL (      12 calls)
     v_of_rho     :      2.25s CPU      2.37s WALL (      13 calls)
     newd         :      0.02s CPU      0.04s WALL (      13 calls)
     mix_rho      :      0.03s CPU      0.03s WALL (      12 calls)
     vdW_kernel   :      1.50s CPU      1.52s WALL (       1 calls)

     Called by c_bands:
     init_us_2    :      1.43s CPU      1.48s WALL (    3105 calls)
     cegterg      :     93.81s CPU     94.76s WALL (    1380 calls)

     Called by *egterg:
     cdiaghg      :      8.46s CPU      8.51s WALL (    4983 calls)
     h_psi        :     73.88s CPU     74.76s WALL (    5098 calls)
     s_psi        :      2.80s CPU      2.82s WALL (    5098 calls)
     g_psi        :      0.25s CPU      0.25s WALL (    3603 calls)

     Called by h_psi:
     h_psi:calbec :      4.44s CPU      4.47s WALL (    5098 calls)
     vloc_psi     :     65.97s CPU     66.79s WALL (    5098 calls)
     add_vuspsi   :      2.94s CPU      2.97s WALL (    5098 calls)

     General routines
     calbec       :      5.91s CPU      5.96s WALL (    7053 calls)
     fft          :      0.73s CPU      0.74s WALL (     845 calls)
     ffts         :      0.01s CPU      0.01s WALL (      12 calls)
     fftw         :     69.32s CPU     70.13s WALL (  318534 calls)

     Parallel routines

     PWSCF        :   2m 6.08s CPU   2m12.43s WALL


   This run was terminated on:  16: 5:31  26Mar2026            

=------------------------------------------------------------------------------=
   JOB DONE.
=------------------------------------------------------------------------------=
