
     Program PWSCF v.7.3.1 starts on  1Apr2026 at 19:20:59 

     This program is part of the open-source Quantum ESPRESSO suite
     for quantum simulation of materials; please cite
         "P. Giannozzi et al., J. Phys.:Condens. Matter 21 395502 (2009);
         "P. Giannozzi et al., J. Phys.:Condens. Matter 29 465901 (2017);
         "P. Giannozzi et al., J. Chem. Phys. 152 154105 (2020);
          URL http://www.quantum-espresso.org", 
     in publications or presentations arising from this work. More details at
     http://www.quantum-espresso.org/quote

     Parallel version (MPI), running on   128 processors

     MPI processes distributed on     1 nodes
     237514 MiB available memory on the printing compute node when the environment starts

     Waiting for input...
     Reading input from standard input

     Current dimensions of program PWSCF are:
     Max number of different atomic species (ntypx) = 10
     Max number of k-points (npk) =  40000
     Max angular momentum in pseudopotentials (lmaxx) =  4

     IMPORTANT: XC functional enforced from input :
     Exchange-correlation= VDW-DF2
                           (   1   4  13   0   2   0   0)
     Any further DFT definition will be discarded
     Please, verify this is what you really want

     Found identity + ( -0.5000 -0.5000  0.0000) symmetry
     This is a supercell, fractional translations are disabled

     K-points division:     npool     =       4
     R & G space division:  proc/nbgrp/npool/nimage =      32
     Subspace diagonalization in iterative solution of the eigenvalue problem:
     a serial algorithm will be used


     Parallelization info
     --------------------
     sticks:   dense  smooth     PW     G-vecs:    dense   smooth      PW
     Min         102     102     28                 5450     5450     792
     Max         103     103     30                 5455     5455     796
     Sum        3269    3269    905               174463   174463   25419

     Using Slab Decomposition



     bravais-lattice index     =            8
     lattice parameter (alat)  =       8.1247  a.u.
     unit-cell volume          =    1512.1010 (a.u.)^3
     number of atoms/cell      =           24
     number of atomic types    =            2
     number of electrons       =        64.00
     number of Kohn-Sham states=           32
     kinetic-energy cutoff     =      90.0000  Ry
     charge density cutoff     =     360.0000  Ry
     scf convergence threshold =      1.0E-07
     mixing beta               =       0.7000
     number of iterations used =            8  plain     mixing
     energy convergence thresh.=      1.0E-04
     force convergence thresh. =      1.0E-03
     Exchange-correlation= VDW-DF2
                           (   1   4  13   0   2   0   0)
     nstep                     =           50


     celldm(1)=   8.124707  celldm(2)=   1.732119  celldm(3)=   1.627721
     celldm(4)=   0.000000  celldm(5)=   0.000000  celldm(6)=   0.000000

     crystal axes: (cart. coord. in units of alat)
               a(1) = (   1.000000   0.000000   0.000000 )  
               a(2) = (   0.000000   1.732119   0.000000 )  
               a(3) = (   0.000000   0.000000   1.627721 )  

     reciprocal axes: (cart. coord. in units 2 pi/alat)
               b(1) = (  1.000000  0.000000  0.000000 )  
               b(2) = (  0.000000  0.577328  0.000000 )  
               b(3) = (  0.000000  0.000000  0.614356 )  


     PseudoPot. # 1 for H  read from file:
     ./H.pbe-van_ak.UPF
     MD5 check sum: 077eb6d537518a38cb46c6de387227b7
     Pseudo is Ultrasoft, Zval =  1.0
     Generated by new atomic code, or converted to UPF format
     Using radial grid of  615 points,  1 beta functions with: 
                l(1) =   0
     Q(r) pseudized with  8 coefficients,  rinner =    0.800

     PseudoPot. # 2 for O  read from file:
     ./O.pbe-van_ak.UPF
     MD5 check sum: 78c19812648e8988a0fe644b0f25305e
     Pseudo is Ultrasoft, Zval =  6.0
     Generated by new atomic code, or converted to UPF format
     Using radial grid of  737 points,  4 beta functions with: 
                l(1) =   0
                l(2) =   0
                l(3) =   1
                l(4) =   1
     Q(r) pseudized with  8 coefficients,  rinner =    0.800   0.800   0.800


     atomic species   valence    mass     pseudopotential
     H                 1.00     1.00800     H ( 1.00)
     O                 6.00    16.00000     O ( 1.00)

      2 Sym. Ops. (no inversion) found



   Cartesian axes

     site n.     atom                  positions (alat units)
         1        O      tau(   1) = (   0.0000000   1.1515127   0.1027092  )
         2        O      tau(   2) = (   0.0000000   0.5806063   0.9165697  )
         3        O      tau(   3) = (   0.5000000   0.2854532   0.1027092  )
         4        O      tau(   4) = (   0.5000000   1.4466659   0.9165697  )
         5        O      tau(   5) = (   0.5000000   1.4298643   1.5250118  )
         6        O      tau(   6) = (   0.5000000   0.3022548   0.7111513  )
         7        O      tau(   7) = (   0.0000000   0.5638048   1.5250118  )
         8        O      tau(   8) = (   0.0000000   1.1683143   0.7111513  )
         9        H      tau(   9) = (   0.0000000   1.1494343   0.3195216  )
        10        H      tau(  10) = (   0.0000000   0.5826848   1.1333822  )
        11        H      tau(  11) = (   0.5000000   0.2833747   0.3195216  )
        12        H      tau(  12) = (   0.5000000   1.4487443   1.1333822  )
        13        H      tau(  13) = (   0.0000000   0.9289355   0.0297873  )
        14        H      tau(  14) = (   0.0000000   0.8031836   0.8436478  )
        15        H      tau(  15) = (   0.5000000   0.0628759   0.0297873  )
        16        H      tau(  16) = (   0.5000000   1.6692431   0.8436478  )
        17        H      tau(  17) = (   0.6766000   1.3420459   1.5979337  )
        18        H      tau(  18) = (   0.3234000   0.3900732   0.7840732  )
        19        H      tau(  19) = (   0.6766000   0.3900732   0.7840732  )
        20        H      tau(  20) = (   0.3234000   1.3420459   1.5979337  )
        21        H      tau(  21) = (   0.1766000   0.4759863   1.5979337  )
        22        H      tau(  22) = (   0.8234000   1.2561327   0.7840732  )
        23        H      tau(  23) = (   0.1766000   1.2561327   0.7840732  )
        24        H      tau(  24) = (   0.8234000   0.4759863   1.5979337  )

     number of k points=   460

     Number of k-points >= 100: set verbosity='high' to print them.

     Dense  grid:   174463 G-vectors     FFT dimensions: (  50,  90,  80)

     Estimated max dynamical RAM per process >      45.86 MB

     Estimated total dynamical RAM >       5.61 GB

     Initial potential from superposition of free atoms

     starting charge      63.9998, renormalised to      64.0000


     %%%%%%%%%%%%%%%%%%%%%%%%%%%%%%%%%%%%%%%%%%%%%%%%%%%%%%%%%%%%%%%%%%%%%%%%
     %                                                                      %
     % You are using vdW-DF, which was implemented by the Thonhauser group. %
     % Please cite the following two papers that made this development      %
     % possible and the two reviews that describe the various versions:     %
     %                                                                      %
     %   T. Thonhauser et al., PRL 115, 136402 (2015).                      %
     %   T. Thonhauser et al., PRB 76, 125112 (2007).                       %
     %   K. Berland et al., Rep. Prog. Phys. 78, 066501 (2015).             %
     %   D.C. Langreth et al., J. Phys.: Condens. Matter 21, 084203 (2009). %
     %                                                                      %
     % If you are calculating stress with vdW-DF, please also cite:         %
     %                                                                      %
     %   R. Sabatini et al., J. Phys.: Condens. Matter 24, 424209 (2012).   %
     %                                                                      %
     %%%%%%%%%%%%%%%%%%%%%%%%%%%%%%%%%%%%%%%%%%%%%%%%%%%%%%%%%%%%%%%%%%%%%%%%

     %%%%%%%%%%%%%%%%%%%%%%%%%%%%%%%%%%%%%%%%%%%%%%%%%%%%%%%%%%%%%%%%%%%%%%%%
     %                                                                      %
     %  vdW-DF NEWS:                                                        %
     %                                                                      %
     %  * vdW-DF3 is now available. DOI: 10.1021/acs.jctc.0c00471           %
     %    use with input_dft = 'vdW-DF3-opt1' or 'vdW-DF3-opt2'             %
     %                                                                      %
     %  * Unscreened and range-separated hybrid vdW-DF-cx functionals       %
     %    DOI: 10.1063/1.4986522 and 10.1088/1361-648X/ac2ad2               %
     %    use with input_dft = 'vdW-DF-cx0'    and 'vdW-DF-ahcx'            %
     %  * Unscreened and range-separated hybrid vdW-DF2-b86r functionals    %
     %    DOI: 10.1063/1.4986522 and DOI: 10.1103/PhysRevX.12.041003        %
     %    use with input_dft = 'vdW-DF2-br0' and 'vdW-DF2-ahbr'             %
     %                                                                      %
     %%%%%%%%%%%%%%%%%%%%%%%%%%%%%%%%%%%%%%%%%%%%%%%%%%%%%%%%%%%%%%%%%%%%%%%%


     Starting wfcs are   48 randomized atomic wfcs

     total cpu time spent up to now is        6.2 secs

     per-process dynamical memory:    53.7 Mb

     Self-consistent Calculation

     iteration #  1     ecut=    90.00 Ry     beta= 0.70
     Davidson diagonalization with overlap
     ethr =  1.00E-02,  avg # of iterations =  2.0

     total cpu time spent up to now is       14.6 secs

     total energy              =    -276.99329787 Ry
     estimated scf accuracy    <       3.60933384 Ry

     iteration #  2     ecut=    90.00 Ry     beta= 0.70
     Davidson diagonalization with overlap
     ethr =  5.64E-03,  avg # of iterations =  3.0

     total cpu time spent up to now is       25.9 secs

     total energy              =    -278.16166117 Ry
     estimated scf accuracy    <       2.07027846 Ry

     iteration #  3     ecut=    90.00 Ry     beta= 0.70
     Davidson diagonalization with overlap
     ethr =  3.23E-03,  avg # of iterations =  2.0

     total cpu time spent up to now is       34.4 secs

     total energy              =    -278.46068546 Ry
     estimated scf accuracy    <       0.07178131 Ry

     iteration #  4     ecut=    90.00 Ry     beta= 0.70
     Davidson diagonalization with overlap
     ethr =  1.12E-04,  avg # of iterations =  4.0

     total cpu time spent up to now is       47.2 secs

     total energy              =    -278.51614337 Ry
     estimated scf accuracy    <       0.09441102 Ry

     iteration #  5     ecut=    90.00 Ry     beta= 0.70
     Davidson diagonalization with overlap
     ethr =  1.12E-04,  avg # of iterations =  2.0

     total cpu time spent up to now is       55.0 secs

     total energy              =    -278.51932729 Ry
     estimated scf accuracy    <       0.01259860 Ry

     iteration #  6     ecut=    90.00 Ry     beta= 0.70
     Davidson diagonalization with overlap
     ethr =  1.97E-05,  avg # of iterations =  2.0

     total cpu time spent up to now is       63.4 secs

     total energy              =    -278.52075438 Ry
     estimated scf accuracy    <       0.00132136 Ry

     iteration #  7     ecut=    90.00 Ry     beta= 0.70
     Davidson diagonalization with overlap
     ethr =  2.06E-06,  avg # of iterations =  4.0

     total cpu time spent up to now is       75.5 secs

     total energy              =    -278.52170692 Ry
     estimated scf accuracy    <       0.00204628 Ry

     iteration #  8     ecut=    90.00 Ry     beta= 0.70
     Davidson diagonalization with overlap
     ethr =  2.06E-06,  avg # of iterations =  2.0

     total cpu time spent up to now is       82.7 secs

     total energy              =    -278.52166054 Ry
     estimated scf accuracy    <       0.00056960 Ry

     iteration #  9     ecut=    90.00 Ry     beta= 0.70
     Davidson diagonalization with overlap
     ethr =  8.90E-07,  avg # of iterations =  2.0

     total cpu time spent up to now is       91.2 secs

     total energy              =    -278.52172168 Ry
     estimated scf accuracy    <       0.00007771 Ry

     iteration # 10     ecut=    90.00 Ry     beta= 0.70
     Davidson diagonalization with overlap
     ethr =  1.21E-07,  avg # of iterations =  2.0

     total cpu time spent up to now is       98.5 secs

     total energy              =    -278.52172391 Ry
     estimated scf accuracy    <       0.00002192 Ry

     iteration # 11     ecut=    90.00 Ry     beta= 0.70
     Davidson diagonalization with overlap
     ethr =  3.43E-08,  avg # of iterations =  2.0

     total cpu time spent up to now is      106.8 secs

     total energy              =    -278.52172519 Ry
     estimated scf accuracy    <       0.00000451 Ry

     iteration # 12     ecut=    90.00 Ry     beta= 0.70
     Davidson diagonalization with overlap
     ethr =  7.05E-09,  avg # of iterations =  3.0

     total cpu time spent up to now is      116.7 secs

     End of self-consistent calculation

     Number of k-points >= 100: set verbosity='high' to print the bands.

     highest occupied level (ev):    -3.2167

!    total energy              =    -278.52172644 Ry
     estimated scf accuracy    <       0.00000004 Ry

     The total energy is the sum of the following terms:
     one-electron contribution =    -230.93600862 Ry
     hartree contribution      =     137.44727091 Ry
     xc contribution           =     -71.65130482 Ry
     ewald contribution        =    -113.38168391 Ry

     convergence has been achieved in  12 iterations

     Forces acting on atoms (cartesian axes, Ry/au):

     atom    1 type  2   force =     0.00000000   -0.01613249   -0.12589165
     atom    2 type  2   force =     0.00000000    0.01613350   -0.12588983
     atom    3 type  2   force =     0.00000000   -0.01613346   -0.12589098
     atom    4 type  2   force =     0.00000000    0.01613252   -0.12589058
     atom    5 type  2   force =     0.00000000    0.18793623   -0.14036323
     atom    6 type  2   force =     0.00000000   -0.18793670   -0.14036245
     atom    7 type  2   force =     0.00000000    0.18793677   -0.14036230
     atom    8 type  2   force =     0.00000000   -0.18793601   -0.14036315
     atom    9 type  1   force =     0.00000000   -0.00066575    0.11767582
     atom   10 type  1   force =     0.00000000    0.00066579    0.11767565
     atom   11 type  1   force =     0.00000000   -0.00066580    0.11767651
     atom   12 type  1   force =     0.00000000    0.00066574    0.11767489
     atom   13 type  1   force =     0.00000000    0.01423822    0.00240607
     atom   14 type  1   force =     0.00000000   -0.01423802    0.00240601
     atom   15 type  1   force =     0.00000000    0.01423807    0.00240604
     atom   16 type  1   force =     0.00000000   -0.01423821    0.00240606
     atom   17 type  1   force =     0.15617934   -0.09418137    0.07308584
     atom   18 type  1   force =    -0.15617949    0.09418138    0.07308594
     atom   19 type  1   force =     0.15617949    0.09418138    0.07308594
     atom   20 type  1   force =    -0.15617934   -0.09418137    0.07308584
     atom   21 type  1   force =     0.15617966   -0.09418148    0.07308601
     atom   22 type  1   force =    -0.15617917    0.09418128    0.07308577
     atom   23 type  1   force =     0.15617917    0.09418128    0.07308577
     atom   24 type  1   force =    -0.15617966   -0.09418148    0.07308601

     Total force =     0.805964     Total SCF correction =     0.000155


     Computing stress (Cartesian axis) and pressure

          total   stress  (Ry/bohr**3)                   (kbar)     P=      149.93
   0.00148007   0.00000000   0.00000000          217.73        0.00        0.00
   0.00000000   0.00048930  -0.00000000            0.00       71.98       -0.00
   0.00000000  -0.00000000   0.00108822            0.00       -0.00      160.08


     BFGS Geometry Optimization
     Energy error            =      0.0E+00 Ry
     Gradient error          =      1.9E-01 Ry/Bohr

     number of scf cycles    =   1
     number of bfgs steps    =   0

     energy             new  =    -278.5217264441 Ry

     new trust radius        =       0.2345673921 bohr
     new conv_thr            =       0.0000001000 Ry


ATOMIC_POSITIONS (crystal)
O                0.0000000000        0.6636536412        0.0535806103
O                0.0000000000        0.3363464301        0.5535807248
O                0.5000000000        0.1636535723        0.0535806609
O                0.5000000000        0.8363463610        0.5535806678
O                0.5000000000        0.8388544320        0.9262863474
O                0.5000000000        0.1611455345        0.4262863762
O                0.0000000000        0.3388544706        0.9262864176
O                0.0000000000        0.6611455837        0.4262863233
H                0.0000000000        0.6635527207        0.2051981467
H                0.0000000000        0.3364472821        0.7051981642
H                0.5000000000        0.1635527171        0.2051981989
H                0.5000000000        0.8364472786        0.7051981067
H                0.0000000000        0.5373117472        0.0184819377
H                0.0000000000        0.4626882670        0.5184819291
H                0.5000000000        0.0373117364        0.0184819353
H                0.5000000000        0.9626882533        0.5184819328
H                0.6958227457        0.7681076386        0.9872264445
H                0.3041772368        0.2318923618        0.4872264520
H                0.6958227632        0.2318923618        0.4872264520
H                0.3041772543        0.7681076386        0.9872264445
H                0.1958227844        0.2681076313        0.9872264573
H                0.8041772756        0.7318923545        0.4872264394
H                0.1958227244        0.7318923545        0.4872264394
H                0.8041772156        0.2681076313        0.9872264573



     Writing config-only to output data dir ./iceIh_vdw/iceIh_vdw.save/ :
     XML data file
     NEW-OLD atomic charge density approx. for the potential

     total cpu time spent up to now is      125.3 secs

     per-process dynamical memory:    55.6 Mb

     Self-consistent Calculation

     iteration #  1     ecut=    90.00 Ry     beta= 0.70
     Davidson diagonalization with overlap
     ethr =  1.00E-06,  avg # of iterations = 11.9

     total cpu time spent up to now is      155.1 secs

     total energy              =    -278.55974704 Ry
     estimated scf accuracy    <       0.17173973 Ry

     iteration #  2     ecut=    90.00 Ry     beta= 0.70
     Davidson diagonalization with overlap
     ethr =  2.68E-04,  avg # of iterations =  3.0

     total cpu time spent up to now is      165.4 secs

     total energy              =    -278.59903830 Ry
     estimated scf accuracy    <       0.06739493 Ry

     iteration #  3     ecut=    90.00 Ry     beta= 0.70
     Davidson diagonalization with overlap
     ethr =  1.05E-04,  avg # of iterations =  2.5

     total cpu time spent up to now is      174.4 secs

     total energy              =    -278.61409008 Ry
     estimated scf accuracy    <       0.00188752 Ry

     iteration #  4     ecut=    90.00 Ry     beta= 0.70
     Davidson diagonalization with overlap
     ethr =  2.95E-06,  avg # of iterations =  3.0

     total cpu time spent up to now is      185.4 secs

     total energy              =    -278.61476809 Ry
     estimated scf accuracy    <       0.00090651 Ry

     iteration #  5     ecut=    90.00 Ry     beta= 0.70
     Davidson diagonalization with overlap
     ethr =  1.42E-06,  avg # of iterations =  2.0

     total cpu time spent up to now is      194.1 secs

     total energy              =    -278.61488473 Ry
     estimated scf accuracy    <       0.00009919 Ry

     iteration #  6     ecut=    90.00 Ry     beta= 0.70
     Davidson diagonalization with overlap
     ethr =  1.55E-07,  avg # of iterations =  4.1

     total cpu time spent up to now is      206.0 secs

     total energy              =    -278.61491577 Ry
     estimated scf accuracy    <       0.00007830 Ry

     iteration #  7     ecut=    90.00 Ry     beta= 0.70
     Davidson diagonalization with overlap
     ethr =  1.22E-07,  avg # of iterations =  2.5

     total cpu time spent up to now is      214.9 secs

     total energy              =    -278.61493053 Ry
     estimated scf accuracy    <       0.00000102 Ry

     iteration #  8     ecut=    90.00 Ry     beta= 0.70
     Davidson diagonalization with overlap
     ethr =  1.59E-09,  avg # of iterations =  5.6

     total cpu time spent up to now is      230.7 secs

     total energy              =    -278.61493192 Ry
     estimated scf accuracy    <       0.00000351 Ry

     iteration #  9     ecut=    90.00 Ry     beta= 0.70
     Davidson diagonalization with overlap
     ethr =  1.59E-09,  avg # of iterations =  3.1

     total cpu time spent up to now is      240.5 secs

     total energy              =    -278.61493198 Ry
     estimated scf accuracy    <       0.00000052 Ry

     iteration # 10     ecut=    90.00 Ry     beta= 0.70
     Davidson diagonalization with overlap
     ethr =  8.15E-10,  avg # of iterations =  2.9

     total cpu time spent up to now is      250.3 secs

     End of self-consistent calculation

     Number of k-points >= 100: set verbosity='high' to print the bands.

     highest occupied level (ev):    -2.9284

!    total energy              =    -278.61493213 Ry
     estimated scf accuracy    <          5.4E-09 Ry

     The total energy is the sum of the following terms:
     one-electron contribution =    -218.71014475 Ry
     hartree contribution      =     132.00661904 Ry
     xc contribution           =     -70.41604816 Ry
     ewald contribution        =    -121.49535826 Ry

     convergence has been achieved in  10 iterations

     Forces acting on atoms (cartesian axes, Ry/au):

     atom    1 type  2   force =     0.00000000    0.06186479    0.07366172
     atom    2 type  2   force =     0.00000000   -0.06186523    0.07366107
     atom    3 type  2   force =     0.00000000    0.06186545    0.07366179
     atom    4 type  2   force =     0.00000000   -0.06186461    0.07366101
     atom    5 type  2   force =     0.00000000   -0.08212951    0.06865832
     atom    6 type  2   force =     0.00000000    0.08212957    0.06865822
     atom    7 type  2   force =     0.00000000   -0.08212958    0.06865816
     atom    8 type  2   force =     0.00000000    0.08212940    0.06865828
     atom    9 type  1   force =     0.00000000    0.00629136   -0.03929383
     atom   10 type  1   force =     0.00000000   -0.00629113   -0.03929337
     atom   11 type  1   force =     0.00000000    0.00629118   -0.03929391
     atom   12 type  1   force =     0.00000000   -0.00629132   -0.03929328
     atom   13 type  1   force =     0.00000000   -0.04777202   -0.02757979
     atom   14 type  1   force =     0.00000000    0.04777238   -0.02757975
     atom   15 type  1   force =     0.00000000   -0.04777262   -0.02757986
     atom   16 type  1   force =     0.00000000    0.04777182   -0.02757970
     atom   17 type  1   force =    -0.04722565    0.03132628   -0.03772316
     atom   18 type  1   force =     0.04722568   -0.03132631   -0.03772313
     atom   19 type  1   force =    -0.04722568   -0.03132631   -0.03772313
     atom   20 type  1   force =     0.04722565    0.03132628   -0.03772316
     atom   21 type  1   force =    -0.04722573    0.03132631   -0.03772310
     atom   22 type  1   force =     0.04722558   -0.03132624   -0.03772315
     atom   23 type  1   force =    -0.04722558   -0.03132624   -0.03772315
     atom   24 type  1   force =     0.04722573    0.03132631   -0.03772310

     Total force =     0.372065     Total SCF correction =     0.000112


     Computing stress (Cartesian axis) and pressure

          total   stress  (Ry/bohr**3)                   (kbar)     P=      -10.88
  -0.00034193   0.00000000   0.00000000          -50.30        0.00        0.00
   0.00000000   0.00030659   0.00000000            0.00       45.10        0.00
   0.00000000   0.00000000  -0.00018650            0.00        0.00      -27.43

     Energy error            =      9.3E-02 Ry
     Gradient error          =      8.2E-02 Ry/Bohr

     number of scf cycles    =   2
     number of bfgs steps    =   1

     energy             old  =    -278.5217264441 Ry
     energy             new  =    -278.6149321318 Ry

     CASE: energy            _new < energy            _old

     new trust radius        =       0.0707119054 bohr
     new conv_thr            =       0.0000000821 Ry


ATOMIC_POSITIONS (crystal)
O                0.0000000000        0.6667422556        0.0573180994
O                0.0000000000        0.3332577950        0.5573181820
O                0.5000000000        0.1667422186        0.0573181550
O                0.5000000000        0.8332577557        0.5573181208
O                0.5000000000        0.8350121962        0.9297319981
O                0.5000000000        0.1649877722        0.4297320232
O                0.0000000000        0.3350122326        0.9297320614
O                0.0000000000        0.6649878140        0.4297319723
H                0.0000000000        0.6638683293        0.2032877623
H                0.0000000000        0.3361316851        0.7032878044
H                0.5000000000        0.1638683167        0.2032878112
H                0.5000000000        0.8361316722        0.7032877501
H                0.0000000000        0.5349294775        0.0170088037
H                0.0000000000        0.4650705549        0.5170087971
H                0.5000000000        0.0349294362        0.0170087975
H                0.5000000000        0.9650705129        0.5170088033
H                0.6921250761        0.7695382942        0.9853266351
H                0.3078749092        0.2304617050        0.4853266448
H                0.6921250908        0.2304617050        0.4853266448
H                0.3078749239        0.7695382942        0.9853266351
H                0.1921251087        0.2695382878        0.9853266516
H                0.8078749397        0.7304617007        0.4853266307
H                0.1921250603        0.7304617007        0.4853266307
H                0.8078748913        0.2695382878        0.9853266516



     Writing config-only to output data dir ./iceIh_vdw/iceIh_vdw.save/ :
     XML data file
     NEW-OLD atomic charge density approx. for the potential

     total cpu time spent up to now is      259.0 secs

     per-process dynamical memory:    55.5 Mb

     Self-consistent Calculation

     iteration #  1     ecut=    90.00 Ry     beta= 0.70
     Davidson diagonalization with overlap
     ethr =  1.00E-06,  avg # of iterations =  9.0

     total cpu time spent up to now is      281.8 secs

     total energy              =    -278.66935615 Ry
     estimated scf accuracy    <       0.01406317 Ry

     iteration #  2     ecut=    90.00 Ry     beta= 0.70
     Davidson diagonalization with overlap
     ethr =  2.20E-05,  avg # of iterations =  3.0

     total cpu time spent up to now is      291.8 secs

     total energy              =    -278.67223904 Ry
     estimated scf accuracy    <       0.00418288 Ry

     iteration #  3     ecut=    90.00 Ry     beta= 0.70
     Davidson diagonalization with overlap
     ethr =  6.54E-06,  avg # of iterations =  3.1

     total cpu time spent up to now is      301.5 secs

     total energy              =    -278.67327950 Ry
     estimated scf accuracy    <       0.00028915 Ry

     iteration #  4     ecut=    90.00 Ry     beta= 0.70
     Davidson diagonalization with overlap
     ethr =  4.52E-07,  avg # of iterations =  2.4

     total cpu time spent up to now is      310.1 secs

     total energy              =    -278.67333404 Ry
     estimated scf accuracy    <       0.00001961 Ry

     iteration #  5     ecut=    90.00 Ry     beta= 0.70
     Davidson diagonalization with overlap
     ethr =  3.06E-08,  avg # of iterations =  3.2

     total cpu time spent up to now is      320.6 secs

     total energy              =    -278.67334117 Ry
     estimated scf accuracy    <       0.00000171 Ry

     iteration #  6     ecut=    90.00 Ry     beta= 0.70
     Davidson diagonalization with overlap
     ethr =  2.68E-09,  avg # of iterations =  2.4

     total cpu time spent up to now is      329.3 secs

     total energy              =    -278.67334127 Ry
     estimated scf accuracy    <       0.00000034 Ry

     iteration #  7     ecut=    90.00 Ry     beta= 0.70
     Davidson diagonalization with overlap
     ethr =  5.34E-10,  avg # of iterations =  3.5

     total cpu time spent up to now is      340.3 secs

     total energy              =    -278.67334139 Ry
     estimated scf accuracy    <       0.00000010 Ry

     iteration #  8     ecut=    90.00 Ry     beta= 0.70
     Davidson diagonalization with overlap
     ethr =  1.53E-10,  avg # of iterations =  2.3

     total cpu time spent up to now is      348.7 secs

     End of self-consistent calculation

     Number of k-points >= 100: set verbosity='high' to print the bands.

     highest occupied level (ev):    -3.0196

!    total energy              =    -278.67334140 Ry
     estimated scf accuracy    <          3.9E-09 Ry

     The total energy is the sum of the following terms:
     one-electron contribution =    -220.38903674 Ry
     hartree contribution      =     132.75980569 Ry
     xc contribution           =     -70.58877734 Ry
     ewald contribution        =    -120.45533301 Ry

     convergence has been achieved in   8 iterations

     Forces acting on atoms (cartesian axes, Ry/au):

     atom    1 type  2   force =     0.00000000   -0.01782482    0.01729072
     atom    2 type  2   force =     0.00000000    0.01782477    0.01729018
     atom    3 type  2   force =     0.00000000   -0.01782491    0.01729046
     atom    4 type  2   force =     0.00000000    0.01782469    0.01729045
     atom    5 type  2   force =     0.00000000   -0.02971767    0.03561963
     atom    6 type  2   force =     0.00000000    0.02971791    0.03561972
     atom    7 type  2   force =     0.00000000   -0.02971790    0.03561965
     atom    8 type  2   force =     0.00000000    0.02971763    0.03561965
     atom    9 type  1   force =     0.00000000    0.00650670   -0.01460712
     atom   10 type  1   force =     0.00000000   -0.00650656   -0.01460679
     atom   11 type  1   force =     0.00000000    0.00650660   -0.01460706
     atom   12 type  1   force =     0.00000000   -0.00650666   -0.01460684
     atom   13 type  1   force =     0.00000000    0.01816692   -0.00550239
     atom   14 type  1   force =     0.00000000   -0.01816700   -0.00550224
     atom   15 type  1   force =     0.00000000    0.01816708   -0.00550226
     atom   16 type  1   force =     0.00000000   -0.01816684   -0.00550239
     atom   17 type  1   force =    -0.02432464    0.01173999   -0.01640042
     atom   18 type  1   force =     0.02432476   -0.01174006   -0.01640043
     atom   19 type  1   force =    -0.02432476   -0.01174006   -0.01640043
     atom   20 type  1   force =     0.02432464    0.01173999   -0.01640042
     atom   21 type  1   force =    -0.02432479    0.01174007   -0.01640041
     atom   22 type  1   force =     0.02432460   -0.01173997   -0.01640042
     atom   23 type  1   force =    -0.02432460   -0.01173997   -0.01640042
     atom   24 type  1   force =     0.02432479    0.01174007   -0.01640041

     Total force =     0.146719     Total SCF correction =     0.000094


     Computing stress (Cartesian axis) and pressure

          total   stress  (Ry/bohr**3)                   (kbar)     P=        3.70
  -0.00005445   0.00000000   0.00000000           -8.01        0.00        0.00
   0.00000000   0.00003516  -0.00000000            0.00        5.17       -0.00
   0.00000000  -0.00000000   0.00009467            0.00       -0.00       13.93

     Energy error            =      5.8E-02 Ry
     Gradient error          =      3.6E-02 Ry/Bohr

     number of scf cycles    =   3
     number of bfgs steps    =   2

     energy             old  =    -278.6149321318 Ry
     energy             new  =    -278.6733414009 Ry

     CASE: energy            _new < energy            _old

     new trust radius        =       0.0663188031 bohr
     new conv_thr            =       0.0000000356 Ry


ATOMIC_POSITIONS (crystal)
O                0.0000000000        0.6651175752        0.0592575183
O                0.0000000000        0.3348824692        0.5592575441
O                0.5000000000        0.1651175306        0.0592575474
O                0.5000000000        0.8348824241        0.5592575103
O                0.5000000000        0.8319504482        0.9335440981
O                0.5000000000        0.1680495437        0.4335441315
O                0.0000000000        0.3319504619        0.9335441620
O                0.0000000000        0.6680495578        0.4335440742
H                0.0000000000        0.6644999961        0.2016712476
H                0.0000000000        0.3355000323        0.7016713240
H                0.5000000000        0.1644999740        0.2016713016
H                0.5000000000        0.8355000092        0.7016712647
H                0.0000000000        0.5366049949        0.0164107919
H                0.0000000000        0.4633950306        0.5164108007
H                0.5000000000        0.0366049687        0.0164107992
H                0.5000000000        0.9633950032        0.5164107922
H                0.6878232156        0.7707586606        0.9835581396
H                0.3121767899        0.2292413312        0.4835581477
H                0.6878232101        0.2292413312        0.4835581477
H                0.3121767844        0.7707586606        0.9835581396
H                0.1878232234        0.2707586618        0.9835581570
H                0.8121767931        0.7292413365        0.4835581348
H                0.1878232069        0.7292413365        0.4835581348
H                0.8121767766        0.2707586618        0.9835581570



     Writing config-only to output data dir ./iceIh_vdw/iceIh_vdw.save/ :
     XML data file
     NEW-OLD atomic charge density approx. for the potential

     total cpu time spent up to now is      357.3 secs

     per-process dynamical memory:    55.5 Mb

     Self-consistent Calculation

     iteration #  1     ecut=    90.00 Ry     beta= 0.70
     Davidson diagonalization with overlap
     ethr =  1.00E-06,  avg # of iterations =  8.4

     total cpu time spent up to now is      378.8 secs

     total energy              =    -278.67888209 Ry
     estimated scf accuracy    <       0.01149002 Ry

     iteration #  2     ecut=    90.00 Ry     beta= 0.70
     Davidson diagonalization with overlap
     ethr =  1.80E-05,  avg # of iterations =  3.0

     total cpu time spent up to now is      389.2 secs

     total energy              =    -278.68187417 Ry
     estimated scf accuracy    <       0.00444479 Ry

     iteration #  3     ecut=    90.00 Ry     beta= 0.70
     Davidson diagonalization with overlap
     ethr =  6.94E-06,  avg # of iterations =  2.0

     total cpu time spent up to now is      397.5 secs

     total energy              =    -278.68271313 Ry
     estimated scf accuracy    <       0.00013814 Ry

     iteration #  4     ecut=    90.00 Ry     beta= 0.70
     Davidson diagonalization with overlap
     ethr =  2.16E-07,  avg # of iterations =  3.3

     total cpu time spent up to now is      408.8 secs

     total energy              =    -278.68278791 Ry
     estimated scf accuracy    <       0.00009474 Ry

     iteration #  5     ecut=    90.00 Ry     beta= 0.70
     Davidson diagonalization with overlap
     ethr =  1.48E-07,  avg # of iterations =  2.0

     total cpu time spent up to now is      417.0 secs

     total energy              =    -278.68279388 Ry
     estimated scf accuracy    <       0.00001388 Ry

     iteration #  6     ecut=    90.00 Ry     beta= 0.70
     Davidson diagonalization with overlap
     ethr =  2.17E-08,  avg # of iterations =  3.0

     total cpu time spent up to now is      428.0 secs

     total energy              =    -278.68279875 Ry
     estimated scf accuracy    <       0.00000755 Ry

     iteration #  7     ecut=    90.00 Ry     beta= 0.70
     Davidson diagonalization with overlap
     ethr =  1.18E-08,  avg # of iterations =  2.0

     total cpu time spent up to now is      436.7 secs

     total energy              =    -278.68279994 Ry
     estimated scf accuracy    <       0.00000021 Ry

     iteration #  8     ecut=    90.00 Ry     beta= 0.70
     Davidson diagonalization with overlap
     ethr =  3.30E-10,  avg # of iterations =  4.2

     total cpu time spent up to now is      449.7 secs

     total energy              =    -278.68280013 Ry
     estimated scf accuracy    <       0.00000014 Ry

     iteration #  9     ecut=    90.00 Ry     beta= 0.70
     Davidson diagonalization with overlap
     ethr =  2.20E-10,  avg # of iterations =  1.2

     total cpu time spent up to now is      456.8 secs

     End of self-consistent calculation

     Number of k-points >= 100: set verbosity='high' to print the bands.

     highest occupied level (ev):    -3.1108

!    total energy              =    -278.68280011 Ry
     estimated scf accuracy    <       0.00000003 Ry

     The total energy is the sum of the following terms:
     one-electron contribution =    -223.76641972 Ry
     hartree contribution      =     134.26973580 Ry
     xc contribution           =     -70.93042833 Ry
     ewald contribution        =    -118.25568786 Ry

     convergence has been achieved in   9 iterations

     Forces acting on atoms (cartesian axes, Ry/au):

     atom    1 type  2   force =     0.00000000    0.00238212   -0.00811410
     atom    2 type  2   force =     0.00000000   -0.00238231   -0.00811353
     atom    3 type  2   force =     0.00000000    0.00238231   -0.00811384
     atom    4 type  2   force =     0.00000000   -0.00238213   -0.00811380
     atom    5 type  2   force =     0.00000000    0.02317138   -0.01110670
     atom    6 type  2   force =     0.00000000   -0.02317149   -0.01110678
     atom    7 type  2   force =     0.00000000    0.02317145   -0.01110680
     atom    8 type  2   force =     0.00000000   -0.02317138   -0.01110666
     atom    9 type  1   force =     0.00000000    0.00041907    0.00882622
     atom   10 type  1   force =     0.00000000   -0.00041902    0.00882570
     atom   11 type  1   force =     0.00000000    0.00041901    0.00882595
     atom   12 type  1   force =     0.00000000   -0.00041907    0.00882597
     atom   13 type  1   force =     0.00000000    0.00066528   -0.00269309
     atom   14 type  1   force =     0.00000000   -0.00066516   -0.00269311
     atom   15 type  1   force =     0.00000000    0.00066517   -0.00269309
     atom   16 type  1   force =     0.00000000   -0.00066526   -0.00269312
     atom   17 type  1   force =     0.01049006   -0.01408894    0.00654382
     atom   18 type  1   force =    -0.01049014    0.01408902    0.00654388
     atom   19 type  1   force =     0.01049014    0.01408902    0.00654388
     atom   20 type  1   force =    -0.01049006   -0.01408894    0.00654382
     atom   21 type  1   force =     0.01049009   -0.01408900    0.00654388
     atom   22 type  1   force =    -0.01049008    0.01408895    0.00654381
     atom   23 type  1   force =     0.01049008    0.01408895    0.00654381
     atom   24 type  1   force =    -0.01049009   -0.01408900    0.00654388

     Total force =     0.077982     Total SCF correction =     0.000113


     Computing stress (Cartesian axis) and pressure

          total   stress  (Ry/bohr**3)                   (kbar)     P=       43.93
   0.00030155   0.00000000   0.00000000           44.36        0.00        0.00
   0.00000000   0.00027551   0.00000000            0.00       40.53        0.00
   0.00000000   0.00000000   0.00031885            0.00        0.00       46.90

     Energy error            =      9.5E-03 Ry
     Gradient error          =      2.3E-02 Ry/Bohr

     number of scf cycles    =   4
     number of bfgs steps    =   3

     energy             old  =    -278.6733414009 Ry
     energy             new  =    -278.6828001064 Ry

     CASE: energy            _new < energy            _old

     new trust radius        =       0.0216335025 bohr
     new conv_thr            =       0.0000000232 Ry


ATOMIC_POSITIONS (crystal)
O                0.0000000000        0.6654543911        0.0587481148
O                0.0000000000        0.3345456440        0.5587481745
O                0.5000000000        0.1654543571        0.0587481602
O                0.5000000000        0.8345456089        0.5587481245
O                0.5000000000        0.8332697056        0.9327044160
O                0.5000000000        0.1667302786        0.4327044444
O                0.0000000000        0.3332697250        0.9327044746
O                0.0000000000        0.6667303002        0.4327043939
H                0.0000000000        0.6644720676        0.2022339350
H                0.0000000000        0.3355279622        0.7022339818
H                0.5000000000        0.1644720435        0.2022339746
H                0.5000000000        0.8355279370        0.7022339374
H                0.0000000000        0.5364297898        0.0162876083
H                0.0000000000        0.4635702426        0.5162876149
H                0.5000000000        0.0364297560        0.0162876143
H                0.5000000000        0.9635702083        0.5162876072
H                0.6890181722        0.7699923139        0.9840129296
H                0.3109818250        0.2300076823        0.4840129411
H                0.6890181750        0.2300076823        0.4840129411
H                0.3109818278        0.7699923139        0.9840129296
H                0.1890181845        0.2699923118        0.9840129498
H                0.8109818354        0.7300076832        0.4840129244
H                0.1890181646        0.7300076832        0.4840129244
H                0.8109818155        0.2699923118        0.9840129498



     Writing config-only to output data dir ./iceIh_vdw/iceIh_vdw.save/ :
     XML data file
     NEW-OLD atomic charge density approx. for the potential

     total cpu time spent up to now is      465.4 secs

     per-process dynamical memory:    55.5 Mb

     Self-consistent Calculation

     iteration #  1     ecut=    90.00 Ry     beta= 0.70
     Davidson diagonalization with overlap
     ethr =  1.00E-06,  avg # of iterations =  4.3

     total cpu time spent up to now is      479.5 secs

     total energy              =    -278.68488386 Ry
     estimated scf accuracy    <       0.00116264 Ry

     iteration #  2     ecut=    90.00 Ry     beta= 0.70
     Davidson diagonalization with overlap
     ethr =  1.82E-06,  avg # of iterations =  3.0

     total cpu time spent up to now is      489.9 secs

     total energy              =    -278.68517783 Ry
     estimated scf accuracy    <       0.00047715 Ry

     iteration #  3     ecut=    90.00 Ry     beta= 0.70
     Davidson diagonalization with overlap
     ethr =  7.46E-07,  avg # of iterations =  2.2

     total cpu time spent up to now is      498.8 secs

     total energy              =    -278.68527033 Ry
     estimated scf accuracy    <       0.00001451 Ry

     iteration #  4     ecut=    90.00 Ry     beta= 0.70
     Davidson diagonalization with overlap
     ethr =  2.27E-08,  avg # of iterations =  3.7

     total cpu time spent up to now is      510.4 secs

     total energy              =    -278.68527780 Ry
     estimated scf accuracy    <       0.00001012 Ry

     iteration #  5     ecut=    90.00 Ry     beta= 0.70
     Davidson diagonalization with overlap
     ethr =  1.58E-08,  avg # of iterations =  2.0

     total cpu time spent up to now is      518.6 secs

     total energy              =    -278.68527841 Ry
     estimated scf accuracy    <       0.00000148 Ry

     iteration #  6     ecut=    90.00 Ry     beta= 0.70
     Davidson diagonalization with overlap
     ethr =  2.31E-09,  avg # of iterations =  3.2

     total cpu time spent up to now is      529.7 secs

     total energy              =    -278.68527899 Ry
     estimated scf accuracy    <       0.00000071 Ry

     iteration #  7     ecut=    90.00 Ry     beta= 0.70
     Davidson diagonalization with overlap
     ethr =  1.11E-09,  avg # of iterations =  2.0

     total cpu time spent up to now is      537.9 secs

     total energy              =    -278.68527907 Ry
     estimated scf accuracy    <       0.00000004 Ry

     iteration #  8     ecut=    90.00 Ry     beta= 0.70
     Davidson diagonalization with overlap
     ethr =  5.67E-11,  avg # of iterations =  4.1

     total cpu time spent up to now is      549.9 secs

     End of self-consistent calculation

     Number of k-points >= 100: set verbosity='high' to print the bands.

     highest occupied level (ev):    -3.0906

!    total energy              =    -278.68527909 Ry
     estimated scf accuracy    <       0.00000001 Ry

     The total energy is the sum of the following terms:
     one-electron contribution =    -222.71990528 Ry
     hartree contribution      =     133.80102157 Ry
     xc contribution           =     -70.82369112 Ry
     ewald contribution        =    -118.94270426 Ry

     convergence has been achieved in   8 iterations

     Forces acting on atoms (cartesian axes, Ry/au):

     atom    1 type  2   force =     0.00000000    0.00047684    0.00041570
     atom    2 type  2   force =     0.00000000   -0.00047676    0.00041548
     atom    3 type  2   force =     0.00000000    0.00047678    0.00041555
     atom    4 type  2   force =     0.00000000   -0.00047681    0.00041562
     atom    5 type  2   force =     0.00000000    0.00164141    0.00483352
     atom    6 type  2   force =     0.00000000   -0.00164135    0.00483354
     atom    7 type  2   force =     0.00000000    0.00164135    0.00483350
     atom    8 type  2   force =     0.00000000   -0.00164143    0.00483354
     atom    9 type  1   force =     0.00000000    0.00125633    0.00088931
     atom   10 type  1   force =     0.00000000   -0.00125627    0.00088942
     atom   11 type  1   force =     0.00000000    0.00125628    0.00088935
     atom   12 type  1   force =     0.00000000   -0.00125632    0.00088938
     atom   13 type  1   force =     0.00000000    0.00262345   -0.00313260
     atom   14 type  1   force =     0.00000000   -0.00262357   -0.00313252
     atom   15 type  1   force =     0.00000000    0.00262355   -0.00313253
     atom   16 type  1   force =     0.00000000   -0.00262347   -0.00313259
     atom   17 type  1   force =    -0.00282111   -0.00362664   -0.00150297
     atom   18 type  1   force =     0.00282114    0.00362663   -0.00150295
     atom   19 type  1   force =    -0.00282114    0.00362663   -0.00150295
     atom   20 type  1   force =     0.00282111   -0.00362664   -0.00150297
     atom   21 type  1   force =    -0.00282116   -0.00362663   -0.00150294
     atom   22 type  1   force =     0.00282109    0.00362665   -0.00150297
     atom   23 type  1   force =    -0.00282109    0.00362665   -0.00150297
     atom   24 type  1   force =     0.00282116   -0.00362663   -0.00150294

     Total force =     0.019211     Total SCF correction =     0.000077


     Computing stress (Cartesian axis) and pressure

          total   stress  (Ry/bohr**3)                   (kbar)     P=       30.60
   0.00016860   0.00000000   0.00000000           24.80        0.00        0.00
   0.00000000   0.00021464   0.00000000            0.00       31.57        0.00
   0.00000000   0.00000000   0.00024086            0.00        0.00       35.43

     Energy error            =      2.5E-03 Ry
     Gradient error          =      4.8E-03 Ry/Bohr

     number of scf cycles    =   5
     number of bfgs steps    =   4

     energy             old  =    -278.6828001064 Ry
     energy             new  =    -278.6852790867 Ry

     CASE: energy            _new < energy            _old

     new trust radius        =       0.0054946858 bohr
     new conv_thr            =       0.0000000048 Ry


ATOMIC_POSITIONS (crystal)
O                0.0000000000        0.6655151491        0.0587810022
O                0.0000000000        0.3344848900        0.5587810486
O                0.5000000000        0.1655151122        0.0587810386
O                0.5000000000        0.8344848526        0.5587810079
O                0.5000000000        0.8334625881        0.9330656591
O                0.5000000000        0.1665373999        0.4330656887
O                0.0000000000        0.3334626029        0.9330657160
O                0.0000000000        0.6665374164        0.4330656391
H                0.0000000000        0.6645733537        0.2023252570
H                0.0000000000        0.3354266805        0.7023253088
H                0.5000000000        0.1645733258        0.2023252975
H                0.5000000000        0.8354266513        0.7023252638
H                0.0000000000        0.5366138568        0.0160136471
H                0.0000000000        0.4633861675        0.5160136600
H                0.5000000000        0.0366138294        0.0160136583
H                0.5000000000        0.9633861397        0.5160136466
H                0.6887099157        0.7696743496        0.9839071833
H                0.3112900846        0.2303256464        0.4839071966
H                0.6887099154        0.2303256464        0.4839071966
H                0.3112900843        0.7696743496        0.9839071833
H                0.1887099218        0.2696743481        0.9839072057
H                0.8112900892        0.7303256479        0.4839071778
H                0.1887099108        0.7303256479        0.4839071778
H                0.8112900782        0.2696743481        0.9839072057



     Writing config-only to output data dir ./iceIh_vdw/iceIh_vdw.save/ :
     XML data file
     NEW-OLD atomic charge density approx. for the potential

     total cpu time spent up to now is      558.5 secs

     per-process dynamical memory:    55.5 Mb

     Self-consistent Calculation

     iteration #  1     ecut=    90.00 Ry     beta= 0.70
     Davidson diagonalization with overlap
     ethr =  1.00E-06,  avg # of iterations =  3.0

     Threshold (ethr) on eigenvalues was too large:
     Diagonalizing with lowered threshold

     Davidson diagonalization with overlap
     ethr =  3.09E-08,  avg # of iterations =  2.2

     total cpu time spent up to now is      576.5 secs

     total energy              =    -278.68563241 Ry
     estimated scf accuracy    <       0.00002342 Ry

     iteration #  2     ecut=    90.00 Ry     beta= 0.70
     Davidson diagonalization with overlap
     ethr =  3.66E-08,  avg # of iterations =  2.0

     total cpu time spent up to now is      584.7 secs

     total energy              =    -278.68563581 Ry
     estimated scf accuracy    <       0.00000106 Ry

     iteration #  3     ecut=    90.00 Ry     beta= 0.70
     Davidson diagonalization with overlap
     ethr =  1.65E-09,  avg # of iterations =  2.9

     total cpu time spent up to now is      594.5 secs

     total energy              =    -278.68563607 Ry
     estimated scf accuracy    <       0.00000026 Ry

     iteration #  4     ecut=    90.00 Ry     beta= 0.70
     Davidson diagonalization with overlap
     ethr =  4.10E-10,  avg # of iterations =  3.1

     total cpu time spent up to now is      603.9 secs

     total energy              =    -278.68563613 Ry
     estimated scf accuracy    <       0.00000003 Ry

     iteration #  5     ecut=    90.00 Ry     beta= 0.70
     Davidson diagonalization with overlap
     ethr =  4.00E-11,  avg # of iterations =  2.3

     total cpu time spent up to now is      612.9 secs

     End of self-consistent calculation

     Number of k-points >= 100: set verbosity='high' to print the bands.

     highest occupied level (ev):    -3.0936

!    total energy              =    -278.68563614 Ry
     estimated scf accuracy    <          2.4E-09 Ry

     The total energy is the sum of the following terms:
     one-electron contribution =    -222.74626087 Ry
     hartree contribution      =     133.81321746 Ry
     xc contribution           =     -70.82594009 Ry
     ewald contribution        =    -118.92665263 Ry

     convergence has been achieved in   5 iterations

     Forces acting on atoms (cartesian axes, Ry/au):

     atom    1 type  2   force =     0.00000000    0.00108898    0.00077212
     atom    2 type  2   force =     0.00000000   -0.00108906    0.00077217
     atom    3 type  2   force =     0.00000000    0.00108903    0.00077214
     atom    4 type  2   force =     0.00000000   -0.00108900    0.00077215
     atom    5 type  2   force =     0.00000000    0.00103251    0.00379991
     atom    6 type  2   force =     0.00000000   -0.00103250    0.00379990
     atom    7 type  2   force =     0.00000000    0.00103250    0.00379987
     atom    8 type  2   force =     0.00000000   -0.00103252    0.00379994
     atom    9 type  1   force =     0.00000000    0.00075395    0.00014466
     atom   10 type  1   force =     0.00000000   -0.00075392    0.00014459
     atom   11 type  1   force =     0.00000000    0.00075392    0.00014460
     atom   12 type  1   force =     0.00000000   -0.00075395    0.00014465
     atom   13 type  1   force =     0.00000000    0.00207206   -0.00239593
     atom   14 type  1   force =     0.00000000   -0.00207203   -0.00239592
     atom   15 type  1   force =     0.00000000    0.00207205   -0.00239592
     atom   16 type  1   force =     0.00000000   -0.00207205   -0.00239594
     atom   17 type  1   force =    -0.00183871   -0.00318435   -0.00116038
     atom   18 type  1   force =     0.00183872    0.00318436   -0.00116036
     atom   19 type  1   force =    -0.00183872    0.00318436   -0.00116036
     atom   20 type  1   force =     0.00183871   -0.00318435   -0.00116038
     atom   21 type  1   force =    -0.00183873   -0.00318436   -0.00116035
     atom   22 type  1   force =     0.00183871    0.00318435   -0.00116039
     atom   23 type  1   force =    -0.00183871    0.00318435   -0.00116039
     atom   24 type  1   force =     0.00183873   -0.00318436   -0.00116035

     Total force =     0.015185     Total SCF correction =     0.000101


     Computing stress (Cartesian axis) and pressure

          total   stress  (Ry/bohr**3)                   (kbar)     P=       30.91
   0.00017670   0.00000000   0.00000000           25.99        0.00        0.00
   0.00000000   0.00021926  -0.00000000            0.00       32.25       -0.00
   0.00000000  -0.00000000   0.00023445            0.00       -0.00       34.49

     Energy error            =      3.6E-04 Ry
     Gradient error          =      3.8E-03 Ry/Bohr

     number of scf cycles    =   6
     number of bfgs steps    =   5

     energy             old  =    -278.6852790867 Ry
     energy             new  =    -278.6856361362 Ry

     CASE: energy            _new < energy            _old

     new trust radius        =       0.0060441544 bohr
     new conv_thr            =       0.0000000036 Ry


ATOMIC_POSITIONS (crystal)
O                0.0000000000        0.6656342958        0.0588543913
O                0.0000000000        0.3343657347        0.5588544440
O                0.5000000000        0.1656342653        0.0588544306
O                0.5000000000        0.8343657039        0.5588544006
O                0.5000000000        0.8336548281        0.9334658502
O                0.5000000000        0.1663451612        0.4334658791
O                0.0000000000        0.3336548413        0.9334659025
O                0.0000000000        0.6663451758        0.4334658335
H                0.0000000000        0.6646649728        0.2023744627
H                0.0000000000        0.3353350657        0.7023745056
H                0.5000000000        0.1646649411        0.2023744960
H                0.5000000000        0.8353350326        0.7023744680
H                0.0000000000        0.5368299449        0.0157194730
H                0.0000000000        0.4631700825        0.5157194877
H                0.5000000000        0.0368299158        0.0157194861
H                0.5000000000        0.9631700532        0.5157194717
H                0.6884294465        0.7692913337        0.9837928765
H                0.3115705542        0.2307086637        0.4837928926
H                0.6884294458        0.2307086637        0.4837928926
H                0.3115705535        0.7692913337        0.9837928765
H                0.1884294500        0.2692913312        0.9837929023
H                0.8115705569        0.7307086640        0.4837928703
H                0.1884294431        0.7307086640        0.4837928703
H                0.8115705500        0.2692913312        0.9837929023



     Writing config-only to output data dir ./iceIh_vdw/iceIh_vdw.save/ :
     XML data file
     NEW-OLD atomic charge density approx. for the potential

     total cpu time spent up to now is      621.6 secs

     per-process dynamical memory:    55.5 Mb

     Self-consistent Calculation

     iteration #  1     ecut=    90.00 Ry     beta= 0.70
     Davidson diagonalization with overlap
     ethr =  1.00E-06,  avg # of iterations =  3.0

     Threshold (ethr) on eigenvalues was too large:
     Diagonalizing with lowered threshold

     Davidson diagonalization with overlap
     ethr =  3.85E-08,  avg # of iterations =  2.2

     total cpu time spent up to now is      640.1 secs

     total energy              =    -278.68593900 Ry
     estimated scf accuracy    <       0.00002889 Ry

     iteration #  2     ecut=    90.00 Ry     beta= 0.70
     Davidson diagonalization with overlap
     ethr =  4.51E-08,  avg # of iterations =  2.0

     total cpu time spent up to now is      648.0 secs

     total energy              =    -278.68594296 Ry
     estimated scf accuracy    <       0.00000120 Ry

     iteration #  3     ecut=    90.00 Ry     beta= 0.70
     Davidson diagonalization with overlap
     ethr =  1.87E-09,  avg # of iterations =  3.0

     total cpu time spent up to now is      657.6 secs

     total energy              =    -278.68594325 Ry
     estimated scf accuracy    <       0.00000029 Ry

     iteration #  4     ecut=    90.00 Ry     beta= 0.70
     Davidson diagonalization with overlap
     ethr =  4.52E-10,  avg # of iterations =  3.3

     total cpu time spent up to now is      667.1 secs

     total energy              =    -278.68594333 Ry
     estimated scf accuracy    <       0.00000004 Ry

     iteration #  5     ecut=    90.00 Ry     beta= 0.70
     Davidson diagonalization with overlap
     ethr =  6.74E-11,  avg # of iterations =  2.6

     total cpu time spent up to now is      676.2 secs

     End of self-consistent calculation

     Number of k-points >= 100: set verbosity='high' to print the bands.

     highest occupied level (ev):    -3.0971

!    total energy              =    -278.68594333 Ry
     estimated scf accuracy    <          2.7E-09 Ry

     The total energy is the sum of the following terms:
     one-electron contribution =    -222.76630454 Ry
     hartree contribution      =     133.82231164 Ry
     xc contribution           =     -70.82751266 Ry
     ewald contribution        =    -118.91443778 Ry

     convergence has been achieved in   5 iterations

     Forces acting on atoms (cartesian axes, Ry/au):

     atom    1 type  2   force =     0.00000000    0.00116452    0.00016635
     atom    2 type  2   force =     0.00000000   -0.00116445    0.00016621
     atom    3 type  2   force =     0.00000000    0.00116447    0.00016626
     atom    4 type  2   force =     0.00000000   -0.00116449    0.00016630
     atom    5 type  2   force =     0.00000000    0.00015807    0.00297437
     atom    6 type  2   force =     0.00000000   -0.00015804    0.00297437
     atom    7 type  2   force =     0.00000000    0.00015803    0.00297435
     atom    8 type  2   force =     0.00000000   -0.00015808    0.00297438
     atom    9 type  1   force =     0.00000000    0.00029813    0.00015554
     atom   10 type  1   force =     0.00000000   -0.00029812    0.00015562
     atom   11 type  1   force =     0.00000000    0.00029812    0.00015558
     atom   12 type  1   force =     0.00000000   -0.00029813    0.00015558
     atom   13 type  1   force =     0.00000000    0.00181522   -0.00153512
     atom   14 type  1   force =     0.00000000   -0.00181530   -0.00153508
     atom   15 type  1   force =     0.00000000    0.00181528   -0.00153509
     atom   16 type  1   force =     0.00000000   -0.00181524   -0.00153511
     atom   17 type  1   force =    -0.00109217   -0.00250274   -0.00088057
     atom   18 type  1   force =     0.00109218    0.00250274   -0.00088056
     atom   19 type  1   force =    -0.00109218    0.00250274   -0.00088056
     atom   20 type  1   force =     0.00109217   -0.00250274   -0.00088057
     atom   21 type  1   force =    -0.00109218   -0.00250274   -0.00088056
     atom   22 type  1   force =     0.00109216    0.00250275   -0.00088057
     atom   23 type  1   force =    -0.00109216    0.00250275   -0.00088057
     atom   24 type  1   force =     0.00109218   -0.00250274   -0.00088056

     Total force =     0.011399     Total SCF correction =     0.000136


     Computing stress (Cartesian axis) and pressure

          total   stress  (Ry/bohr**3)                   (kbar)     P=       31.10
   0.00018318   0.00000000   0.00000000           26.95        0.00        0.00
   0.00000000   0.00022005   0.00000000            0.00       32.37        0.00
   0.00000000   0.00000000   0.00023107            0.00        0.00       33.99

     Energy error            =      3.1E-04 Ry
     Gradient error          =      3.0E-03 Ry/Bohr

     number of scf cycles    =   7
     number of bfgs steps    =   6

     energy             old  =    -278.6856361362 Ry
     energy             new  =    -278.6859433322 Ry

     CASE: energy            _new < energy            _old

     new trust radius        =       0.0090662316 bohr
     new conv_thr            =       0.0000000030 Ry


ATOMIC_POSITIONS (crystal)
O                0.0000000000        0.6658580971        0.0589028311
O                0.0000000000        0.3341419388        0.5589028673
O                0.5000000000        0.1658580635        0.0589028589
O                0.5000000000        0.8341419054        0.5589028359
O                0.5000000000        0.8338599986        0.9340840706
O                0.5000000000        0.1661399952        0.4340840996
O                0.0000000000        0.3338600057        0.9340841184
O                0.0000000000        0.6661400031        0.4340840574
H                0.0000000000        0.6647668267        0.2024574802
H                0.0000000000        0.3352332165        0.7024575285
H                0.5000000000        0.1647667906        0.2024575148
H                0.5000000000        0.8352331791        0.7024574902
H                0.0000000000        0.5371889291        0.0153158756
H                0.0000000000        0.4628110876        0.5153158973
H                0.5000000000        0.0371889078        0.0153158939
H                0.5000000000        0.9628110665        0.5153158754
H                0.6880731220        0.7687028856        0.9836198352
H                0.3119268812        0.2312971127        0.4836198558
H                0.6880731188        0.2312971127        0.4836198558
H                0.3119268780        0.7687028856        0.9836198352
H                0.1880731192        0.2687028833        0.9836198654
H                0.8119268783        0.7312971128        0.4836198289
H                0.1880731217        0.7312971128        0.4836198289
H                0.8119268808        0.2687028833        0.9836198654



     Writing config-only to output data dir ./iceIh_vdw/iceIh_vdw.save/ :
     XML data file
     NEW-OLD atomic charge density approx. for the potential

     total cpu time spent up to now is      685.2 secs

     per-process dynamical memory:    55.5 Mb

     Self-consistent Calculation

     iteration #  1     ecut=    90.00 Ry     beta= 0.70
     Davidson diagonalization with overlap
     ethr =  1.00E-06,  avg # of iterations =  3.1

     Threshold (ethr) on eigenvalues was too large:
     Diagonalizing with lowered threshold

     Davidson diagonalization with overlap
     ethr =  9.37E-08,  avg # of iterations =  2.0

     total cpu time spent up to now is      704.3 secs

     total energy              =    -278.68623205 Ry
     estimated scf accuracy    <       0.00006658 Ry

     iteration #  2     ecut=    90.00 Ry     beta= 0.70
     Davidson diagonalization with overlap
     ethr =  1.04E-07,  avg # of iterations =  2.0

     total cpu time spent up to now is      712.6 secs

     total energy              =    -278.68624145 Ry
     estimated scf accuracy    <       0.00000462 Ry

     iteration #  3     ecut=    90.00 Ry     beta= 0.70
     Davidson diagonalization with overlap
     ethr =  7.23E-09,  avg # of iterations =  3.0

     total cpu time spent up to now is      722.8 secs

     total energy              =    -278.68624254 Ry
     estimated scf accuracy    <       0.00000209 Ry

     iteration #  4     ecut=    90.00 Ry     beta= 0.70
     Davidson diagonalization with overlap
     ethr =  3.27E-09,  avg # of iterations =  3.0

     total cpu time spent up to now is      731.7 secs

     total energy              =    -278.68624300 Ry
     estimated scf accuracy    <       0.00000006 Ry

     iteration #  5     ecut=    90.00 Ry     beta= 0.70
     Davidson diagonalization with overlap
     ethr =  1.01E-10,  avg # of iterations =  4.6

     total cpu time spent up to now is      743.2 secs

     total energy              =    -278.68624301 Ry
     estimated scf accuracy    <       0.00000004 Ry

     iteration #  6     ecut=    90.00 Ry     beta= 0.70
     Davidson diagonalization with overlap
     ethr =  5.86E-11,  avg # of iterations =  2.5

     total cpu time spent up to now is      751.6 secs

     End of self-consistent calculation

     Number of k-points >= 100: set verbosity='high' to print the bands.

     highest occupied level (ev):    -3.1021

!    total energy              =    -278.68624302 Ry
     estimated scf accuracy    <          1.2E-09 Ry

     The total energy is the sum of the following terms:
     one-electron contribution =    -222.78501092 Ry
     hartree contribution      =     133.83114261 Ry
     xc contribution           =     -70.82892334 Ry
     ewald contribution        =    -118.90345137 Ry

     convergence has been achieved in   6 iterations

     Forces acting on atoms (cartesian axes, Ry/au):

     atom    1 type  2   force =     0.00000000    0.00111938    0.00014993
     atom    2 type  2   force =     0.00000000   -0.00111952    0.00015011
     atom    3 type  2   force =     0.00000000    0.00111948    0.00015005
     atom    4 type  2   force =     0.00000000   -0.00111942    0.00015000
     atom    5 type  2   force =     0.00000000   -0.00081089    0.00157528
     atom    6 type  2   force =     0.00000000    0.00081089    0.00157528
     atom    7 type  2   force =     0.00000000   -0.00081087    0.00157526
     atom    8 type  2   force =     0.00000000    0.00081090    0.00157530
     atom    9 type  1   force =     0.00000000   -0.00017118   -0.00037915
     atom   10 type  1   force =     0.00000000    0.00017118   -0.00037928
     atom   11 type  1   force =     0.00000000   -0.00017118   -0.00037923
     atom   12 type  1   force =     0.00000000    0.00017118   -0.00037920
     atom   13 type  1   force =     0.00000000    0.00132917   -0.00048478
     atom   14 type  1   force =     0.00000000   -0.00132905   -0.00048483
     atom   15 type  1   force =     0.00000000    0.00132909   -0.00048482
     atom   16 type  1   force =     0.00000000   -0.00132913   -0.00048479
     atom   17 type  1   force =    -0.00007735   -0.00157316   -0.00043065
     atom   18 type  1   force =     0.00007735    0.00157317   -0.00043064
     atom   19 type  1   force =    -0.00007735    0.00157317   -0.00043064
     atom   20 type  1   force =     0.00007735   -0.00157316   -0.00043065
     atom   21 type  1   force =    -0.00007734   -0.00157317   -0.00043064
     atom   22 type  1   force =     0.00007736    0.00157316   -0.00043066
     atom   23 type  1   force =    -0.00007736    0.00157316   -0.00043066
     atom   24 type  1   force =     0.00007734   -0.00157317   -0.00043064

     Total force =     0.006906     Total SCF correction =     0.000071


     Computing stress (Cartesian axis) and pressure

          total   stress  (Ry/bohr**3)                   (kbar)     P=       31.32
   0.00019433   0.00000000   0.00000000           28.59        0.00        0.00
   0.00000000   0.00022196  -0.00000000            0.00       32.65       -0.00
   0.00000000  -0.00000000   0.00022244            0.00       -0.00       32.72

     Energy error            =      3.0E-04 Ry
     Gradient error          =      1.6E-03 Ry/Bohr

     number of scf cycles    =   8
     number of bfgs steps    =   7

     energy             old  =    -278.6859433322 Ry
     energy             new  =    -278.6862430167 Ry

     CASE: energy            _new < energy            _old

     new trust radius        =       0.0107715417 bohr
     new conv_thr            =       0.0000000016 Ry


ATOMIC_POSITIONS (crystal)
O                0.0000000000        0.6661774052        0.0589644531
O                0.0000000000        0.3338226107        0.5589645084
O                0.5000000000        0.1661773859        0.0589644919
O                0.5000000000        0.8338225921        0.5589644665
O                0.5000000000        0.8339749604        0.9348091219
O                0.5000000000        0.1660250362        0.4348091506
O                0.0000000000        0.3339749650        0.9348091622
O                0.0000000000        0.6660250409        0.4348091149
H                0.0000000000        0.6648423259        0.2024884990
H                0.0000000000        0.3351577208        0.7024885279
H                0.5000000000        0.1648422863        0.2024885198
H                0.5000000000        0.8351576803        0.7024885038
H                0.0000000000        0.5376688471        0.0148932081
H                0.0000000000        0.4623311810        0.5148932272
H                0.5000000000        0.0376688188        0.0148932246
H                0.5000000000        0.9623311532        0.5148932065
H                0.6877720282        0.7679809586        0.9834223211
H                0.3122279755        0.2320190421        0.4834223473
H                0.6877720245        0.2320190421        0.4834223473
H                0.3122279718        0.7679809586        0.9834223211
H                0.1877720240        0.2679809546        0.9834223573
H                0.8122279719        0.7320190399        0.4834223141
H                0.1877720281        0.7320190399        0.4834223141
H                0.8122279760        0.2679809546        0.9834223573



     Writing config-only to output data dir ./iceIh_vdw/iceIh_vdw.save/ :
     XML data file
     NEW-OLD atomic charge density approx. for the potential

     total cpu time spent up to now is      760.5 secs

     per-process dynamical memory:    56.1 Mb

     Self-consistent Calculation

     iteration #  1     ecut=    90.00 Ry     beta= 0.70
     Davidson diagonalization with overlap
     ethr =  1.00E-06,  avg # of iterations =  3.4

     total cpu time spent up to now is      772.8 secs

     total energy              =    -278.68636747 Ry
     estimated scf accuracy    <       0.00008551 Ry

     iteration #  2     ecut=    90.00 Ry     beta= 0.70
     Davidson diagonalization with overlap
     ethr =  1.34E-07,  avg # of iterations =  2.0

     total cpu time spent up to now is      781.5 secs

     total energy              =    -278.68638059 Ry
     estimated scf accuracy    <       0.00001413 Ry

     iteration #  3     ecut=    90.00 Ry     beta= 0.70
     Davidson diagonalization with overlap
     ethr =  2.21E-08,  avg # of iterations =  3.0

     total cpu time spent up to now is      791.6 secs

     total energy              =    -278.68638436 Ry
     estimated scf accuracy    <       0.00000412 Ry

     iteration #  4     ecut=    90.00 Ry     beta= 0.70
     Davidson diagonalization with overlap
     ethr =  6.44E-09,  avg # of iterations =  2.3

     total cpu time spent up to now is      799.8 secs

     total energy              =    -278.68638502 Ry
     estimated scf accuracy    <       0.00000013 Ry

     iteration #  5     ecut=    90.00 Ry     beta= 0.70
     Davidson diagonalization with overlap
     ethr =  1.99E-10,  avg # of iterations =  5.1

     total cpu time spent up to now is      813.1 secs

     total energy              =    -278.68638506 Ry
     estimated scf accuracy    <       0.00000024 Ry

     iteration #  6     ecut=    90.00 Ry     beta= 0.70
     Davidson diagonalization with overlap
     ethr =  1.99E-10,  avg # of iterations =  3.0

     total cpu time spent up to now is      823.3 secs

     total energy              =    -278.68638511 Ry
     estimated scf accuracy    <          2.2E-09 Ry

     iteration #  7     ecut=    90.00 Ry     beta= 0.70
     Davidson diagonalization with overlap
     ethr =  3.51E-12,  avg # of iterations =  5.7

     total cpu time spent up to now is      838.2 secs

     total energy              =    -278.68638512 Ry
     estimated scf accuracy    <       0.00000001 Ry

     iteration #  8     ecut=    90.00 Ry     beta= 0.70
     Davidson diagonalization with overlap
     ethr =  3.51E-12,  avg # of iterations =  3.7

     total cpu time spent up to now is      849.0 secs

     End of self-consistent calculation

     Number of k-points >= 100: set verbosity='high' to print the bands.

     highest occupied level (ev):    -3.1086

!    total energy              =    -278.68638512 Ry
     estimated scf accuracy    <          6.7E-10 Ry

     The total energy is the sum of the following terms:
     one-electron contribution =    -222.80995051 Ry
     hartree contribution      =     133.84244613 Ry
     xc contribution           =     -70.83102437 Ry
     ewald contribution        =    -118.88785637 Ry

     convergence has been achieved in   8 iterations

     Forces acting on atoms (cartesian axes, Ry/au):

     atom    1 type  2   force =     0.00000000    0.00069877   -0.00037514
     atom    2 type  2   force =     0.00000000   -0.00069852   -0.00037546
     atom    3 type  2   force =     0.00000000    0.00069860   -0.00037534
     atom    4 type  2   force =     0.00000000   -0.00069869   -0.00037527
     atom    5 type  2   force =     0.00000000   -0.00167875   -0.00002600
     atom    6 type  2   force =     0.00000000    0.00167877   -0.00002599
     atom    7 type  2   force =     0.00000000   -0.00167880   -0.00002597
     atom    8 type  2   force =     0.00000000    0.00167873   -0.00002602
     atom    9 type  1   force =     0.00000000   -0.00050082   -0.00024914
     atom   10 type  1   force =     0.00000000    0.00050079   -0.00024891
     atom   11 type  1   force =     0.00000000   -0.00050079   -0.00024899
     atom   12 type  1   force =     0.00000000    0.00050082   -0.00024906
     atom   13 type  1   force =     0.00000000    0.00064738    0.00052105
     atom   14 type  1   force =     0.00000000   -0.00064760    0.00052110
     atom   15 type  1   force =     0.00000000    0.00064753    0.00052108
     atom   16 type  1   force =     0.00000000   -0.00064745    0.00052108
     atom   17 type  1   force =     0.00071358   -0.00045948    0.00006462
     atom   18 type  1   force =    -0.00071358    0.00045947    0.00006463
     atom   19 type  1   force =     0.00071358    0.00045947    0.00006463
     atom   20 type  1   force =    -0.00071358   -0.00045948    0.00006462
     atom   21 type  1   force =     0.00071357   -0.00045946    0.00006461
     atom   22 type  1   force =    -0.00071359    0.00045949    0.00006463
     atom   23 type  1   force =     0.00071359    0.00045949    0.00006463
     atom   24 type  1   force =    -0.00071357   -0.00045946    0.00006461

     Total force =     0.004858     Total SCF correction =     0.000040


     Computing stress (Cartesian axis) and pressure

          total   stress  (Ry/bohr**3)                   (kbar)     P=       31.60
   0.00020639   0.00000000   0.00000000           30.36        0.00        0.00
   0.00000000   0.00022254   0.00000000            0.00       32.74        0.00
   0.00000000   0.00000000   0.00021550            0.00        0.00       31.70

     Energy error            =      1.4E-04 Ry
     Gradient error          =      1.7E-03 Ry/Bohr

     number of scf cycles    =   9
     number of bfgs steps    =   8

     energy             old  =    -278.6862430167 Ry
     energy             new  =    -278.6863851161 Ry

     CASE: energy            _new < energy            _old

     new trust radius        =       0.0019434478 bohr
     new conv_thr            =       0.0000000014 Ry


ATOMIC_POSITIONS (crystal)
O                0.0000000000        0.6662638723        0.0589403801
O                0.0000000000        0.3337361618        0.5589404087
O                0.5000000000        0.1662638405        0.0589404023
O                0.5000000000        0.8337361309        0.5589403832
O                0.5000000000        0.8338709536        0.9349057915
O                0.5000000000        0.1661290452        0.4349058212
O                0.0000000000        0.3338709541        0.9349058338
O                0.0000000000        0.6661290458        0.4349057834
H                0.0000000000        0.6648192311        0.2024792593
H                0.0000000000        0.3351808137        0.7024793064
H                0.5000000000        0.1648191928        0.2024792917
H                0.5000000000        0.8351807748        0.7024792709
H                0.0000000000        0.5377817782        0.0148741738
H                0.0000000000        0.4622182329        0.5148741975
H                0.5000000000        0.0377817616        0.0148741927
H                0.5000000000        0.9622182168        0.5148741746
H                0.6878124566        0.7678512919        0.9834001598
H                0.3121875482        0.2321487084        0.4834001875
H                0.6878124518        0.2321487084        0.4834001875
H                0.3121875434        0.7678512919        0.9834001598
H                0.1878124500        0.2678512892        0.9834001962
H                0.8121875420        0.7321487073        0.4834001539
H                0.1878124580        0.7321487073        0.4834001539
H                0.8121875500        0.2678512892        0.9834001962



     Writing config-only to output data dir ./iceIh_vdw/iceIh_vdw.save/ :
     XML data file
     NEW-OLD atomic charge density approx. for the potential

     total cpu time spent up to now is      857.7 secs

     per-process dynamical memory:    55.5 Mb

     Self-consistent Calculation

     iteration #  1     ecut=    90.00 Ry     beta= 0.70
     Davidson diagonalization with overlap
     ethr =  1.00E-06,  avg # of iterations =  2.0

     Threshold (ethr) on eigenvalues was too large:
     Diagonalizing with lowered threshold

[...]
     atom   22 type  1   force =    -0.00066661    0.00041442    0.00016606
     atom   23 type  1   force =     0.00066661    0.00041442    0.00016606
     atom   24 type  1   force =    -0.00066665   -0.00041445    0.00016607

     Total force =     0.004028     Total SCF correction =     0.000019


     Computing stress (Cartesian axis) and pressure

          total   stress  (Ry/bohr**3)                   (kbar)     P=       31.66
   0.00020901   0.00000000   0.00000000           30.75        0.00        0.00
   0.00000000   0.00022290  -0.00000000            0.00       32.79       -0.00
   0.00000000  -0.00000000   0.00021373            0.00       -0.00       31.44

     Energy error            =      2.2E-05 Ry
     Gradient error          =      1.4E-03 Ry/Bohr

     number of scf cycles    =  10
     number of bfgs steps    =   9

     energy             old  =    -278.6863851161 Ry
     energy             new  =    -278.6864075017 Ry

     CASE: energy            _new < energy            _old

     new trust radius        =       0.0021377926 bohr
     new conv_thr            =       0.0000000010 Ry


ATOMIC_POSITIONS (crystal)
O                0.0000000000        0.6663397374        0.0589256626
O                0.0000000000        0.3336602849        0.5589257083
O                0.5000000000        0.1663397137        0.0589256959
O                0.5000000000        0.8336602620        0.5589256719
O                0.5000000000        0.8337222602        0.9349388632
O                0.5000000000        0.1662777384        0.4349388933
O                0.0000000000        0.3337222622        0.9349389045
O                0.0000000000        0.6662777403        0.4349388563
H                0.0000000000        0.6647879195        0.2024545627
H                0.0000000000        0.3352121229        0.7024545985
H                0.5000000000        0.1647878830        0.2024545889
H                0.5000000000        0.8352120861        0.7024545693
H                0.0000000000        0.5378758725        0.0148856038
H                0.0000000000        0.4621241486        0.5148856215
H                0.5000000000        0.0378758494        0.0148856178
H                0.5000000000        0.9621241261        0.5148856036
H                0.6879007909        0.7677415211        0.9833976154
H                0.3120992127        0.2322584801        0.4833976443
H                0.6879007873        0.2322584801        0.4833976443
H                0.3120992091        0.7677415211        0.9833976154
H                0.1879007878        0.2677415175        0.9833976526
H                0.8120992097        0.7322584778        0.4833976096
H                0.1879007903        0.7322584778        0.4833976096
H                0.8120992122        0.2677415175        0.9833976526



     Writing config-only to output data dir ./iceIh_vdw/iceIh_vdw.save/ :
     XML data file
     NEW-OLD atomic charge density approx. for the potential

     total cpu time spent up to now is      931.1 secs

     per-process dynamical memory:    55.5 Mb

     Self-consistent Calculation

     iteration #  1     ecut=    90.00 Ry     beta= 0.70
     Davidson diagonalization with overlap
     ethr =  1.00E-06,  avg # of iterations =  2.0

     Threshold (ethr) on eigenvalues was too large:
     Diagonalizing with lowered threshold

     Davidson diagonalization with overlap
     ethr =  5.53E-09,  avg # of iterations =  3.0

     total cpu time spent up to now is      949.8 secs

     total energy              =    -278.68642712 Ry
     estimated scf accuracy    <       0.00000427 Ry

     iteration #  2     ecut=    90.00 Ry     beta= 0.70
     Davidson diagonalization with overlap
     ethr =  6.68E-09,  avg # of iterations =  3.0

     total cpu time spent up to now is      959.9 secs

     total energy              =    -278.68642775 Ry
     estimated scf accuracy    <       0.00000211 Ry

     iteration #  3     ecut=    90.00 Ry     beta= 0.70
     Davidson diagonalization with overlap
     ethr =  3.30E-09,  avg # of iterations =  3.0

     total cpu time spent up to now is      969.7 secs

     total energy              =    -278.68642831 Ry
     estimated scf accuracy    <       0.00000007 Ry

     iteration #  4     ecut=    90.00 Ry     beta= 0.70
     Davidson diagonalization with overlap
     ethr =  1.13E-10,  avg # of iterations =  3.1

     total cpu time spent up to now is      978.5 secs

     total energy              =    -278.68642831 Ry
     estimated scf accuracy    <       0.00000003 Ry

     iteration #  5     ecut=    90.00 Ry     beta= 0.70
     Davidson diagonalization with overlap
     ethr =  5.34E-11,  avg # of iterations =  3.1

     total cpu time spent up to now is      988.9 secs

     total energy              =    -278.68642832 Ry
     estimated scf accuracy    <          7.7E-09 Ry

     iteration #  6     ecut=    90.00 Ry     beta= 0.70
     Davidson diagonalization with overlap
     ethr =  1.21E-11,  avg # of iterations =  2.1

     total cpu time spent up to now is      996.6 secs

     End of self-consistent calculation

     Number of k-points >= 100: set verbosity='high' to print the bands.

     highest occupied level (ev):    -3.1110

!    total energy              =    -278.68642832 Ry
     estimated scf accuracy    <          5.2E-10 Ry

     The total energy is the sum of the following terms:
     one-electron contribution =    -222.81569575 Ry
     hartree contribution      =     133.84501982 Ry
     xc contribution           =     -70.83169129 Ry
     ewald contribution        =    -118.88406110 Ry

     convergence has been achieved in   6 iterations

     Forces acting on atoms (cartesian axes, Ry/au):

     atom    1 type  2   force =     0.00000000    0.00017750   -0.00003863
     atom    2 type  2   force =     0.00000000   -0.00017741   -0.00003874
     atom    3 type  2   force =     0.00000000    0.00017744   -0.00003870
     atom    4 type  2   force =     0.00000000   -0.00017747   -0.00003868
     atom    5 type  2   force =     0.00000000   -0.00105196   -0.00050696
     atom    6 type  2   force =     0.00000000    0.00105197   -0.00050695
     atom    7 type  2   force =     0.00000000   -0.00105198   -0.00050694
     atom    8 type  2   force =     0.00000000    0.00105195   -0.00050697
     atom    9 type  1   force =     0.00000000   -0.00014623   -0.00005905
     atom   10 type  1   force =     0.00000000    0.00014621   -0.00005897
     atom   11 type  1   force =     0.00000000   -0.00014621   -0.00005900
     atom   12 type  1   force =     0.00000000    0.00014622   -0.00005902
     atom   13 type  1   force =     0.00000000    0.00012116    0.00024124
     atom   14 type  1   force =     0.00000000   -0.00012124    0.00024125
     atom   15 type  1   force =     0.00000000    0.00012122    0.00024124
     atom   16 type  1   force =     0.00000000   -0.00012119    0.00024125
     atom   17 type  1   force =     0.00041877   -0.00036803    0.00018170
     atom   18 type  1   force =    -0.00041877    0.00036803    0.00018171
     atom   19 type  1   force =     0.00041877    0.00036803    0.00018171
     atom   20 type  1   force =    -0.00041877   -0.00036803    0.00018170
     atom   21 type  1   force =     0.00041877   -0.00036802    0.00018170
     atom   22 type  1   force =    -0.00041877    0.00036803    0.00018171
     atom   23 type  1   force =     0.00041877    0.00036803    0.00018171
     atom   24 type  1   force =    -0.00041877   -0.00036802    0.00018170

     Total force =     0.002954     Total SCF correction =     0.000024


     Computing stress (Cartesian axis) and pressure

          total   stress  (Ry/bohr**3)                   (kbar)     P=       31.68
   0.00021000   0.00000000   0.00000000           30.89        0.00        0.00
   0.00000000   0.00022221   0.00000000            0.00       32.69        0.00
   0.00000000   0.00000000   0.00021378            0.00        0.00       31.45

     Energy error            =      2.1E-05 Ry
     Gradient error          =      1.1E-03 Ry/Bohr

     number of scf cycles    =  11
     number of bfgs steps    =  10

     energy             old  =    -278.6864075017 Ry
     energy             new  =    -278.6864283185 Ry

     CASE: energy            _new < energy            _old

     new trust radius        =       0.0032066889 bohr
     new conv_thr            =       0.0000000010 Ry


ATOMIC_POSITIONS (crystal)
O                0.0000000000        0.6664170031        0.0589034386
O                0.0000000000        0.3335830368        0.5589034584
O                0.5000000000        0.1664169674        0.0589034566
O                0.5000000000        0.8335830021        0.5589034373
O                0.5000000000        0.8334945885        0.9349290647
O                0.5000000000        0.1665054125        0.4349290967
O                0.0000000000        0.3334945865        0.9349291094
O                0.0000000000        0.6665054102        0.4349290561
H                0.0000000000        0.6647521024        0.2024380883
H                0.0000000000        0.3352479360        0.7024381421
H                0.5000000000        0.1647520687        0.2024381265
H                0.5000000000        0.8352479027        0.7024381008
H                0.0000000000        0.5379725642        0.0149113418
H                0.0000000000        0.4620274401        0.5149113623
H                0.5000000000        0.0379725529        0.0149113564
H                0.5000000000        0.9620274294        0.5149113441
H                0.6880238870        0.7676065369        0.9834089949
H                0.3119761172        0.2323934638        0.4834090255
H                0.6880238828        0.2323934638        0.4834090255
H                0.3119761130        0.7676065369        0.9834089949
H                0.1880238825        0.2676065348        0.9834090318
H                0.8119761126        0.7323934626        0.4834089908
H                0.1880238874        0.7323934626        0.4834089908
H                0.8119761175        0.2676065348        0.9834090318



     Writing config-only to output data dir ./iceIh_vdw/iceIh_vdw.save/ :
     XML data file
     NEW-OLD atomic charge density approx. for the potential

     total cpu time spent up to now is     1005.2 secs

     per-process dynamical memory:    55.5 Mb

     Self-consistent Calculation

     iteration #  1     ecut=    90.00 Ry     beta= 0.70
     Davidson diagonalization with overlap
     ethr =  1.00E-06,  avg # of iterations =  2.0

     Threshold (ethr) on eigenvalues was too large:
     Diagonalizing with lowered threshold

     Davidson diagonalization with overlap
     ethr =  9.79E-09,  avg # of iterations =  3.0

     total cpu time spent up to now is     1023.8 secs

     total energy              =    -278.68644462 Ry
     estimated scf accuracy    <       0.00000759 Ry

     iteration #  2     ecut=    90.00 Ry     beta= 0.70
     Davidson diagonalization with overlap
     ethr =  1.19E-08,  avg # of iterations =  3.0

     total cpu time spent up to now is     1033.8 secs

     total energy              =    -278.68644577 Ry
     estimated scf accuracy    <       0.00000332 Ry

     iteration #  3     ecut=    90.00 Ry     beta= 0.70
     Davidson diagonalization with overlap
     ethr =  5.18E-09,  avg # of iterations =  3.0

     total cpu time spent up to now is     1043.8 secs

     total energy              =    -278.68644670 Ry
     estimated scf accuracy    <       0.00000016 Ry

     iteration #  4     ecut=    90.00 Ry     beta= 0.70
     Davidson diagonalization with overlap
     ethr =  2.56E-10,  avg # of iterations =  2.0

     total cpu time spent up to now is     1051.3 secs

     total energy              =    -278.68644670 Ry
     estimated scf accuracy    <       0.00000004 Ry

     iteration #  5     ecut=    90.00 Ry     beta= 0.70
     Davidson diagonalization with overlap
     ethr =  6.49E-11,  avg # of iterations =  3.0

     total cpu time spent up to now is     1061.8 secs

     total energy              =    -278.68644671 Ry
     estimated scf accuracy    <       0.00000001 Ry

     iteration #  6     ecut=    90.00 Ry     beta= 0.70
     Davidson diagonalization with overlap
     ethr =  1.64E-11,  avg # of iterations =  2.0

     total cpu time spent up to now is     1069.5 secs

     End of self-consistent calculation

     Number of k-points >= 100: set verbosity='high' to print the bands.

     highest occupied level (ev):    -3.1120

!    total energy              =    -278.68644671 Ry
     estimated scf accuracy    <          8.1E-10 Ry

     The total energy is the sum of the following terms:
     one-electron contribution =    -222.81177777 Ry
     hartree contribution      =     133.84321214 Ry
     xc contribution           =     -70.83140623 Ry
     ewald contribution        =    -118.88647485 Ry

     convergence has been achieved in   6 iterations

     Forces acting on atoms (cartesian axes, Ry/au):

     atom    1 type  2   force =     0.00000000   -0.00019411    0.00014827
     atom    2 type  2   force =     0.00000000    0.00019375    0.00014875
     atom    3 type  2   force =     0.00000000   -0.00019386    0.00014857
     atom    4 type  2   force =     0.00000000    0.00019399    0.00014845
     atom    5 type  2   force =     0.00000000   -0.00062474   -0.00054323
     atom    6 type  2   force =     0.00000000    0.00062471   -0.00054323
     atom    7 type  2   force =     0.00000000   -0.00062467   -0.00054326
     atom    8 type  2   force =     0.00000000    0.00062477   -0.00054320
     atom    9 type  1   force =     0.00000000    0.00010761    0.00010047
     atom   10 type  1   force =     0.00000000   -0.00010761    0.00010014
     atom   11 type  1   force =     0.00000000    0.00010761    0.00010027
     atom   12 type  1   force =     0.00000000   -0.00010761    0.00010034
     atom   13 type  1   force =     0.00000000   -0.00016238   -0.00000658
     atom   14 type  1   force =     0.00000000    0.00016270   -0.00000669
     atom   15 type  1   force =     0.00000000   -0.00016259   -0.00000666
     atom   16 type  1   force =     0.00000000    0.00016249   -0.00000662
     atom   17 type  1   force =     0.00006255   -0.00033339    0.00015052
     atom   18 type  1   force =    -0.00006257    0.00033341    0.00015053
     atom   19 type  1   force =     0.00006257    0.00033341    0.00015053
     atom   20 type  1   force =    -0.00006255   -0.00033339    0.00015052
     atom   21 type  1   force =     0.00006259   -0.00033342    0.00015054
     atom   22 type  1   force =    -0.00006253    0.00033338    0.00015051
     atom   23 type  1   force =     0.00006253    0.00033338    0.00015051
     atom   24 type  1   force =    -0.00006259   -0.00033342    0.00015054

     Total force =     0.002067     Total SCF correction =     0.000029


     Computing stress (Cartesian axis) and pressure

          total   stress  (Ry/bohr**3)                   (kbar)     P=       31.63
   0.00021076   0.00000000   0.00000000           31.00        0.00        0.00
   0.00000000   0.00022093  -0.00000000            0.00       32.50       -0.00
   0.00000000  -0.00000000   0.00021342            0.00       -0.00       31.39

     Energy error            =      1.8E-05 Ry
     Gradient error          =      6.2E-04 Ry/Bohr

     bfgs converged in  12 scf cycles and  11 bfgs steps
     (criteria: energy <  1.0E-04 Ry, force <  1.0E-03 Ry/Bohr)

     End of BFGS Geometry Optimization

     Final energy             =    -278.6864467125 Ry

     File ./iceIh_vdw/iceIh_vdw.bfgs deleted, as requested
Begin final coordinates

ATOMIC_POSITIONS (crystal)
O                0.0000000000        0.6664170031        0.0589034386
O                0.0000000000        0.3335830368        0.5589034584
O                0.5000000000        0.1664169674        0.0589034566
O                0.5000000000        0.8335830021        0.5589034373
O                0.5000000000        0.8334945885        0.9349290647
O                0.5000000000        0.1665054125        0.4349290967
O                0.0000000000        0.3334945865        0.9349291094
O                0.0000000000        0.6665054102        0.4349290561
H                0.0000000000        0.6647521024        0.2024380883
H                0.0000000000        0.3352479360        0.7024381421
H                0.5000000000        0.1647520687        0.2024381265
H                0.5000000000        0.8352479027        0.7024381008
H                0.0000000000        0.5379725642        0.0149113418
H                0.0000000000        0.4620274401        0.5149113623
H                0.5000000000        0.0379725529        0.0149113564
H                0.5000000000        0.9620274294        0.5149113441
H                0.6880238870        0.7676065369        0.9834089949
H                0.3119761172        0.2323934638        0.4834090255
H                0.6880238828        0.2323934638        0.4834090255
H                0.3119761130        0.7676065369        0.9834089949
H                0.1880238825        0.2676065348        0.9834090318
H                0.8119761126        0.7323934626        0.4834089908
H                0.1880238874        0.7323934626        0.4834089908
H                0.8119761175        0.2676065348        0.9834090318
End final coordinates



     Writing all to output data dir ./iceIh_vdw/iceIh_vdw.save/ :
     XML data file, charge density, pseudopotentials, collected wavefunctions

     init_run     :      5.79s CPU      5.90s WALL (       1 calls)
     electrons    :    951.86s CPU    968.93s WALL (      12 calls)
     update_pot   :      0.67s CPU      0.76s WALL (      11 calls)
     forces       :      6.21s CPU      6.24s WALL (      12 calls)
     stress       :     93.05s CPU     93.19s WALL (      12 calls)

     Called by init_run:
     wfcinit      :      3.79s CPU      3.84s WALL (       1 calls)
     potinit      :      1.58s CPU      1.60s WALL (       1 calls)
     hinit0       :      0.35s CPU      0.35s WALL (       1 calls)

     Called by electrons:
     c_bands      :    848.25s CPU    862.23s WALL (      95 calls)
     sum_band     :     97.85s CPU     98.92s WALL (      95 calls)
     v_of_rho     :      7.37s CPU      8.04s WALL (     101 calls)
     newd         :      0.20s CPU      0.24s WALL (     101 calls)
     mix_rho      :      0.15s CPU      0.16s WALL (      95 calls)
     vdW_kernel   :      1.51s CPU      1.51s WALL (       1 calls)

     Called by c_bands:
     init_us_2    :     11.46s CPU     11.86s WALL (   24725 calls)
     cegterg      :    819.95s CPU    828.09s WALL (   10925 calls)

     Called by *egterg:
     cdiaghg      :     75.11s CPU     75.45s WALL (   42921 calls)
     h_psi        :    616.35s CPU    623.53s WALL (   44991 calls)
     s_psi        :     24.54s CPU     24.75s WALL (   44991 calls)
     g_psi        :      2.09s CPU      2.10s WALL (   33951 calls)

     Called by h_psi:
     h_psi:calbec :     37.68s CPU     38.08s WALL (   44991 calls)
     vloc_psi     :    549.41s CPU    555.86s WALL (   44991 calls)
     add_vuspsi   :     25.51s CPU     25.77s WALL (   44991 calls)

     General routines
     calbec       :     52.23s CPU     52.79s WALL (   62816 calls)
     fft          :      3.50s CPU      3.57s WALL (    6802 calls)
     ffts         :      0.04s CPU      0.04s WALL (      95 calls)
     fftw         :    574.56s CPU    581.10s WALL ( 2631892 calls)

     Parallel routines

     PWSCF        :  17m43.52s CPU  18m10.03s WALL


   This run was terminated on:  19:39: 9   1Apr2026            

=------------------------------------------------------------------------------=
   JOB DONE.
=------------------------------------------------------------------------------=
