
     Program PWSCF v.7.3.1 starts on 26Mar2026 at 16:10:11 

     This program is part of the open-source Quantum ESPRESSO suite
     for quantum simulation of materials; please cite
         "P. Giannozzi et al., J. Phys.:Condens. Matter 21 395502 (2009);
         "P. Giannozzi et al., J. Phys.:Condens. Matter 29 465901 (2017);
         "P. Giannozzi et al., J. Chem. Phys. 152 154105 (2020);
          URL http://www.quantum-espresso.org", 
     in publications or presentations arising from this work. More details at
     http://www.quantum-espresso.org/quote

     Parallel version (MPI), running on   128 processors

     MPI processes distributed on     1 nodes
     237595 MiB available memory on the printing compute node when the environment starts

     Waiting for input...
     Reading input from standard input

     Current dimensions of program PWSCF are:
     Max number of different atomic species (ntypx) = 10
     Max number of k-points (npk) =  40000
     Max angular momentum in pseudopotentials (lmaxx) =  4

     IMPORTANT: XC functional enforced from input :
     Exchange-correlation= VDW-DF2
                           (   1   4  13   0   2   0   0)
     Any further DFT definition will be discarded
     Please, verify this is what you really want

     Found identity + ( -0.5000 -0.5000 -0.0000) symmetry
     This is a supercell, fractional translations are disabled

     K-points division:     npool     =       4
     R & G space division:  proc/nbgrp/npool/nimage =      32
     Subspace diagonalization in iterative solution of the eigenvalue problem:
     a serial algorithm will be used


     Parallelization info
     --------------------
     sticks:   dense  smooth     PW     G-vecs:    dense   smooth      PW
     Min         102     102     28                 5464     5464     798
     Max         104     104     29                 5467     5467     801
     Sum        3281    3281    905               174883   174883   25555

     Using Slab Decomposition



     bravais-lattice index     =            8
     lattice parameter (alat)  =       8.1332  a.u.
     unit-cell volume          =    1516.8560 (a.u.)^3
     number of atoms/cell      =           24
     number of atomic types    =            2
     number of electrons       =        64.00
     number of Kohn-Sham states=           32
     kinetic-energy cutoff     =      90.0000  Ry
     charge density cutoff     =     360.0000  Ry
     scf convergence threshold =      1.0E-07
     mixing beta               =       0.7000
     number of iterations used =            8  plain     mixing
     Exchange-correlation= VDW-DF2
                           (   1   4  13   0   2   0   0)

     celldm(1)=   8.133214  celldm(2)=   1.732119  celldm(3)=   1.627721
     celldm(4)=   0.000000  celldm(5)=   0.000000  celldm(6)=   0.000000

     crystal axes: (cart. coord. in units of alat)
               a(1) = (   1.000000   0.000000   0.000000 )  
               a(2) = (   0.000000   1.732119   0.000000 )  
               a(3) = (   0.000000   0.000000   1.627721 )  

     reciprocal axes: (cart. coord. in units 2 pi/alat)
               b(1) = (  1.000000  0.000000  0.000000 )  
               b(2) = (  0.000000  0.577328  0.000000 )  
               b(3) = (  0.000000  0.000000  0.614356 )  


     PseudoPot. # 1 for H  read from file:
     ./H.pbe-van_ak.UPF
     MD5 check sum: 077eb6d537518a38cb46c6de387227b7
     Pseudo is Ultrasoft, Zval =  1.0
     Generated by new atomic code, or converted to UPF format
     Using radial grid of  615 points,  1 beta functions with: 
                l(1) =   0
     Q(r) pseudized with  8 coefficients,  rinner =    0.800

     PseudoPot. # 2 for O  read from file:
     ./O.pbe-van_ak.UPF
     MD5 check sum: 78c19812648e8988a0fe644b0f25305e
     Pseudo is Ultrasoft, Zval =  6.0
     Generated by new atomic code, or converted to UPF format
     Using radial grid of  737 points,  4 beta functions with: 
                l(1) =   0
                l(2) =   0
                l(3) =   1
                l(4) =   1
     Q(r) pseudized with  8 coefficients,  rinner =    0.800   0.800   0.800


     atomic species   valence    mass     pseudopotential
     H                 1.00     1.00800     H ( 1.00)
     O                 6.00    16.00000     O ( 1.00)

      2 Sym. Ops. (no inversion) found



   Cartesian axes

     site n.     atom                  positions (alat units)
         1        O      tau(   1) = (   0.0000000   1.1505053   0.0983911  )
         2        O      tau(   2) = (   0.0000000   0.5816137   0.9122516  )
         3        O      tau(   3) = (   0.5000000   0.2844458   0.0983911  )
         4        O      tau(   4) = (   0.5000000   1.4476733   0.9122516  )
         5        O      tau(   5) = (   0.5000000   1.4413210   1.5245781  )
         6        O      tau(   6) = (   0.5000000   0.2907980   0.7107175  )
         7        O      tau(   7) = (   0.0000000   0.5752615   1.5245780  )
         8        O      tau(   8) = (   0.0000000   1.1568575   0.7107175  )
         9        H      tau(   9) = (   0.0000000   1.1476935   0.3199225  )
        10        H      tau(  10) = (   0.0000000   0.5844255   1.1337830  )
        11        H      tau(  11) = (   0.5000000   0.2816340   0.3199225  )
        12        H      tau(  12) = (   0.5000000   1.4504851   1.1337830  )
        13        H      tau(  13) = (   0.0000000   0.9389577   0.0320281  )
        14        H      tau(  14) = (   0.0000000   0.7931613   0.8458886  )
        15        H      tau(  15) = (   0.5000000   0.0728982   0.0320281  )
        16        H      tau(  16) = (   0.5000000   1.6592209   0.8458886  )
        17        H      tau(  17) = (   0.6777387   1.3318248   1.5989889  )
        18        H      tau(  18) = (   0.3222613   0.4002942   0.7851284  )
        19        H      tau(  19) = (   0.6777387   0.4002942   0.7851284  )
        20        H      tau(  20) = (   0.3222613   1.3318248   1.5989889  )
        21        H      tau(  21) = (   0.1777387   0.4657653   1.5989889  )
        22        H      tau(  22) = (   0.8222613   1.2663538   0.7851284  )
        23        H      tau(  23) = (   0.1777387   1.2663538   0.7851284  )
        24        H      tau(  24) = (   0.8222613   0.4657653   1.5989889  )

     number of k points=   460

     Number of k-points >= 100: set verbosity='high' to print them.

     Dense  grid:   174883 G-vectors     FFT dimensions: (  50,  90,  80)

     Estimated max dynamical RAM per process >      45.98 MB

     Estimated total dynamical RAM >       5.62 GB

     Initial potential from superposition of free atoms

     starting charge      63.9998, renormalised to      64.0000


     %%%%%%%%%%%%%%%%%%%%%%%%%%%%%%%%%%%%%%%%%%%%%%%%%%%%%%%%%%%%%%%%%%%%%%%%
     %                                                                      %
     % You are using vdW-DF, which was implemented by the Thonhauser group. %
     % Please cite the following two papers that made this development      %
     % possible and the two reviews that describe the various versions:     %
     %                                                                      %
     %   T. Thonhauser et al., PRL 115, 136402 (2015).                      %
     %   T. Thonhauser et al., PRB 76, 125112 (2007).                       %
     %   K. Berland et al., Rep. Prog. Phys. 78, 066501 (2015).             %
     %   D.C. Langreth et al., J. Phys.: Condens. Matter 21, 084203 (2009). %
     %                                                                      %
     % If you are calculating stress with vdW-DF, please also cite:         %
     %                                                                      %
     %   R. Sabatini et al., J. Phys.: Condens. Matter 24, 424209 (2012).   %
     %                                                                      %
     %%%%%%%%%%%%%%%%%%%%%%%%%%%%%%%%%%%%%%%%%%%%%%%%%%%%%%%%%%%%%%%%%%%%%%%%

     %%%%%%%%%%%%%%%%%%%%%%%%%%%%%%%%%%%%%%%%%%%%%%%%%%%%%%%%%%%%%%%%%%%%%%%%
     %                                                                      %
     %  vdW-DF NEWS:                                                        %
     %                                                                      %
     %  * vdW-DF3 is now available. DOI: 10.1021/acs.jctc.0c00471           %
     %    use with input_dft = 'vdW-DF3-opt1' or 'vdW-DF3-opt2'             %
     %                                                                      %
     %  * Unscreened and range-separated hybrid vdW-DF-cx functionals       %
     %    DOI: 10.1063/1.4986522 and 10.1088/1361-648X/ac2ad2               %
     %    use with input_dft = 'vdW-DF-cx0'    and 'vdW-DF-ahcx'            %
     %  * Unscreened and range-separated hybrid vdW-DF2-b86r functionals    %
     %    DOI: 10.1063/1.4986522 and DOI: 10.1103/PhysRevX.12.041003        %
     %    use with input_dft = 'vdW-DF2-br0' and 'vdW-DF2-ahbr'             %
     %                                                                      %
     %%%%%%%%%%%%%%%%%%%%%%%%%%%%%%%%%%%%%%%%%%%%%%%%%%%%%%%%%%%%%%%%%%%%%%%%


     Starting wfcs are   48 randomized atomic wfcs

     total cpu time spent up to now is        6.1 secs

     per-process dynamical memory:    52.8 Mb

     Self-consistent Calculation

     iteration #  1     ecut=    90.00 Ry     beta= 0.70
     Davidson diagonalization with overlap
     ethr =  1.00E-02,  avg # of iterations =  2.0

     total cpu time spent up to now is       14.6 secs

     total energy              =    -277.17421682 Ry
     estimated scf accuracy    <       3.41558534 Ry

     iteration #  2     ecut=    90.00 Ry     beta= 0.70
     Davidson diagonalization with overlap
     ethr =  5.34E-03,  avg # of iterations =  3.0

     total cpu time spent up to now is       25.8 secs

     total energy              =    -278.28494027 Ry
     estimated scf accuracy    <       2.01583281 Ry

     iteration #  3     ecut=    90.00 Ry     beta= 0.70
     Davidson diagonalization with overlap
     ethr =  3.15E-03,  avg # of iterations =  2.0

     total cpu time spent up to now is       34.4 secs

     total energy              =    -278.57206149 Ry
     estimated scf accuracy    <       0.07274390 Ry

     iteration #  4     ecut=    90.00 Ry     beta= 0.70
     Davidson diagonalization with overlap
     ethr =  1.14E-04,  avg # of iterations =  4.0

     total cpu time spent up to now is       47.4 secs

     total energy              =    -278.62761471 Ry
     estimated scf accuracy    <       0.09724646 Ry

     iteration #  5     ecut=    90.00 Ry     beta= 0.70
     Davidson diagonalization with overlap
     ethr =  1.14E-04,  avg # of iterations =  2.0

     total cpu time spent up to now is       55.1 secs

     total energy              =    -278.62987577 Ry
     estimated scf accuracy    <       0.01297956 Ry

     iteration #  6     ecut=    90.00 Ry     beta= 0.70
     Davidson diagonalization with overlap
     ethr =  2.03E-05,  avg # of iterations =  2.0

     total cpu time spent up to now is       64.0 secs

     total energy              =    -278.63302256 Ry
     estimated scf accuracy    <       0.00032635 Ry

     iteration #  7     ecut=    90.00 Ry     beta= 0.70
     Davidson diagonalization with overlap
     ethr =  5.10E-07,  avg # of iterations =  5.1

     total cpu time spent up to now is       79.0 secs

     total energy              =    -278.63380098 Ry
     estimated scf accuracy    <       0.00261969 Ry

     iteration #  8     ecut=    90.00 Ry     beta= 0.70
     Davidson diagonalization with overlap
     ethr =  5.10E-07,  avg # of iterations =  2.0

     total cpu time spent up to now is       86.4 secs

     total energy              =    -278.63319945 Ry
     estimated scf accuracy    <       0.00153715 Ry

     iteration #  9     ecut=    90.00 Ry     beta= 0.70
     Davidson diagonalization with overlap
     ethr =  5.10E-07,  avg # of iterations =  3.0

     total cpu time spent up to now is       97.5 secs

     total energy              =    -278.63340044 Ry
     estimated scf accuracy    <       0.00006355 Ry

     iteration # 10     ecut=    90.00 Ry     beta= 0.70
     Davidson diagonalization with overlap
     ethr =  9.93E-08,  avg # of iterations =  2.0

     total cpu time spent up to now is      105.2 secs

     total energy              =    -278.63339379 Ry
     estimated scf accuracy    <       0.00003046 Ry

     iteration # 11     ecut=    90.00 Ry     beta= 0.70
     Davidson diagonalization with overlap
     ethr =  4.76E-08,  avg # of iterations =  3.0

     total cpu time spent up to now is      114.7 secs

     End of self-consistent calculation

     Number of k-points >= 100: set verbosity='high' to print the bands.

     highest occupied level (ev):    -3.3107

!    total energy              =    -278.63340287 Ry
     estimated scf accuracy    <       0.00000004 Ry

     The total energy is the sum of the following terms:
     one-electron contribution =    -229.00444785 Ry
     hartree contribution      =     136.56470780 Ry
     xc contribution           =     -71.41038089 Ry
     ewald contribution        =    -114.78328193 Ry

     convergence has been achieved in  11 iterations

     Forces acting on atoms (cartesian axes, Ry/au):

     atom    1 type  2   force =     0.00000000    0.06796000   -0.04962421
     atom    2 type  2   force =     0.00000000   -0.06795991   -0.04962397
     atom    3 type  2   force =     0.00000000    0.06795998   -0.04962412
     atom    4 type  2   force =     0.00000000   -0.06795977   -0.04962397
     atom    5 type  2   force =     0.00000000    0.06809955   -0.04768947
     atom    6 type  2   force =     0.00000000   -0.06809991   -0.04768973
     atom    7 type  2   force =     0.00000000    0.06809980   -0.04768967
     atom    8 type  2   force =     0.00000000   -0.06809975   -0.04768964
     atom    9 type  1   force =     0.00000000    0.00332711    0.07706250
     atom   10 type  1   force =     0.00000000   -0.00332713    0.07706240
     atom   11 type  1   force =     0.00000000    0.00332715    0.07706241
     atom   12 type  1   force =     0.00000000   -0.00332710    0.07706254
     atom   13 type  1   force =     0.00000000   -0.07142566   -0.02722077
     atom   14 type  1   force =     0.00000000    0.07142565   -0.02722078
     atom   15 type  1   force =     0.00000000   -0.07142560   -0.02722078
     atom   16 type  1   force =     0.00000000    0.07142572   -0.02722078
     atom   17 type  1   force =     0.06433819   -0.03528458    0.02373604
     atom   18 type  1   force =    -0.06433810    0.03528451    0.02373599
     atom   19 type  1   force =     0.06433810    0.03528451    0.02373599
     atom   20 type  1   force =    -0.06433819   -0.03528458    0.02373604
     atom   21 type  1   force =     0.06433816   -0.03528453    0.02373599
     atom   22 type  1   force =    -0.06433813    0.03528454    0.02373600
     atom   23 type  1   force =     0.06433813    0.03528454    0.02373600
     atom   24 type  1   force =    -0.06433816   -0.03528453    0.02373599

     Total force =     0.388231     Total SCF correction =     0.000217


     Computing stress (Cartesian axis) and pressure

          total   stress  (Ry/bohr**3)                   (kbar)     P=      109.97
   0.00073602   0.00000000   0.00000000          108.27        0.00        0.00
   0.00000000   0.00076841   0.00000000            0.00      113.04        0.00
   0.00000000   0.00000000   0.00073830            0.00        0.00      108.61


     Writing all to output data dir ./iceIh/iceIh.save/ :
     XML data file, charge density, pseudopotentials, collected wavefunctions

     init_run     :      5.82s CPU      5.92s WALL (       1 calls)
     electrons    :    106.94s CPU    108.66s WALL (       1 calls)
     forces       :      0.52s CPU      0.53s WALL (       1 calls)
     stress       :      7.77s CPU      7.81s WALL (       1 calls)

     Called by init_run:
     wfcinit      :      3.82s CPU      3.86s WALL (       1 calls)
     potinit      :      1.58s CPU      1.62s WALL (       1 calls)
     hinit0       :      0.34s CPU      0.35s WALL (       1 calls)

     Called by electrons:
     c_bands      :     94.91s CPU     96.31s WALL (      11 calls)
     sum_band     :     11.32s CPU     11.44s WALL (      11 calls)
     v_of_rho     :      2.21s CPU      2.32s WALL (      12 calls)
     newd         :      0.03s CPU      0.04s WALL (      12 calls)
     mix_rho      :      0.02s CPU      0.03s WALL (      11 calls)
     vdW_kernel   :      1.50s CPU      1.52s WALL (       1 calls)

     Called by c_bands:
     init_us_2    :      1.36s CPU      1.39s WALL (    2875 calls)
     cegterg      :     92.23s CPU     93.07s WALL (    1265 calls)

     Called by *egterg:
     cdiaghg      :      8.18s CPU      8.21s WALL (    4723 calls)
     h_psi        :     72.62s CPU     73.39s WALL (    4838 calls)
     s_psi        :      2.69s CPU      2.71s WALL (    4838 calls)
     g_psi        :      0.25s CPU      0.25s WALL (    3458 calls)

     Called by h_psi:
     h_psi:calbec :      4.41s CPU      4.45s WALL (    4838 calls)
     vloc_psi     :     64.85s CPU     65.55s WALL (    4838 calls)
     add_vuspsi   :      2.91s CPU      2.93s WALL (    4838 calls)

     General routines
     calbec       :      5.90s CPU      5.96s WALL (    6678 calls)
     fft          :      0.71s CPU      0.72s WALL (     784 calls)
     ffts         :      0.01s CPU      0.01s WALL (      11 calls)
     fftw         :     67.64s CPU     68.36s WALL (  308260 calls)

     Parallel routines

     PWSCF        :   2m 3.94s CPU   2m12.61s WALL


   This run was terminated on:  16:12:24  26Mar2026            

=------------------------------------------------------------------------------=
   JOB DONE.
=------------------------------------------------------------------------------=
