
     Program PWSCF v.7.3.1 starts on  1Apr2026 at 19:57:43 

     This program is part of the open-source Quantum ESPRESSO suite
     for quantum simulation of materials; please cite
         "P. Giannozzi et al., J. Phys.:Condens. Matter 21 395502 (2009);
         "P. Giannozzi et al., J. Phys.:Condens. Matter 29 465901 (2017);
         "P. Giannozzi et al., J. Chem. Phys. 152 154105 (2020);
          URL http://www.quantum-espresso.org", 
     in publications or presentations arising from this work. More details at
     http://www.quantum-espresso.org/quote

     Parallel version (MPI), running on   128 processors

     MPI processes distributed on     1 nodes
     237497 MiB available memory on the printing compute node when the environment starts

     Waiting for input...
     Reading input from standard input

     Current dimensions of program PWSCF are:
     Max number of different atomic species (ntypx) = 10
     Max number of k-points (npk) =  40000
     Max angular momentum in pseudopotentials (lmaxx) =  4

     IMPORTANT: XC functional enforced from input :
     Exchange-correlation= VDW-DF2
                           (   1   4  13   0   2   0   0)
     Any further DFT definition will be discarded
     Please, verify this is what you really want

     Found identity + ( -0.5000 -0.5000  0.0000) symmetry
     This is a supercell, fractional translations are disabled

     K-points division:     npool     =       4
     R & G space division:  proc/nbgrp/npool/nimage =      32
     Subspace diagonalization in iterative solution of the eigenvalue problem:
     a serial algorithm will be used


     Parallelization info
     --------------------
     sticks:   dense  smooth     PW     G-vecs:    dense   smooth      PW
     Min         103     103     28                 5555     5555     804
     Max         105     105     29                 5560     5560     809
     Sum        3325    3325    905               177821   177821   25815

     Using Slab Decomposition



     bravais-lattice index     =            8
     lattice parameter (alat)  =       8.1758  a.u.
     unit-cell volume          =    1540.7808 (a.u.)^3
     number of atoms/cell      =           24
     number of atomic types    =            2
     number of electrons       =        64.00
     number of Kohn-Sham states=           32
     kinetic-energy cutoff     =      90.0000  Ry
     charge density cutoff     =     360.0000  Ry
     scf convergence threshold =      1.0E-07
     mixing beta               =       0.7000
     number of iterations used =            8  plain     mixing
     energy convergence thresh.=      1.0E-04
     force convergence thresh. =      1.0E-03
     Exchange-correlation= VDW-DF2
                           (   1   4  13   0   2   0   0)
     nstep                     =           50


     celldm(1)=   8.175752  celldm(2)=   1.732119  celldm(3)=   1.627721
     celldm(4)=   0.000000  celldm(5)=   0.000000  celldm(6)=   0.000000

     crystal axes: (cart. coord. in units of alat)
               a(1) = (   1.000000   0.000000   0.000000 )  
               a(2) = (   0.000000   1.732119   0.000000 )  
               a(3) = (   0.000000   0.000000   1.627721 )  

     reciprocal axes: (cart. coord. in units 2 pi/alat)
               b(1) = (  1.000000  0.000000  0.000000 )  
               b(2) = (  0.000000  0.577328  0.000000 )  
               b(3) = (  0.000000  0.000000  0.614356 )  


     PseudoPot. # 1 for H  read from file:
     ./H.pbe-van_ak.UPF
     MD5 check sum: 077eb6d537518a38cb46c6de387227b7
     Pseudo is Ultrasoft, Zval =  1.0
     Generated by new atomic code, or converted to UPF format
     Using radial grid of  615 points,  1 beta functions with: 
                l(1) =   0
     Q(r) pseudized with  8 coefficients,  rinner =    0.800

     PseudoPot. # 2 for O  read from file:
     ./O.pbe-van_ak.UPF
     MD5 check sum: 78c19812648e8988a0fe644b0f25305e
     Pseudo is Ultrasoft, Zval =  6.0
     Generated by new atomic code, or converted to UPF format
     Using radial grid of  737 points,  4 beta functions with: 
                l(1) =   0
                l(2) =   0
                l(3) =   1
                l(4) =   1
     Q(r) pseudized with  8 coefficients,  rinner =    0.800   0.800   0.800


     atomic species   valence    mass     pseudopotential
     H                 1.00     1.00800     H ( 1.00)
     O                 6.00    16.00000     O ( 1.00)

      2 Sym. Ops. (no inversion) found



   Cartesian axes

     site n.     atom                  positions (alat units)
         1        O      tau(   1) = (   0.0000000   1.1515127   0.1027092  )
         2        O      tau(   2) = (   0.0000000   0.5806063   0.9165697  )
         3        O      tau(   3) = (   0.5000000   0.2854532   0.1027092  )
         4        O      tau(   4) = (   0.5000000   1.4466659   0.9165697  )
         5        O      tau(   5) = (   0.5000000   1.4298643   1.5250118  )
         6        O      tau(   6) = (   0.5000000   0.3022548   0.7111513  )
         7        O      tau(   7) = (   0.0000000   0.5638048   1.5250118  )
         8        O      tau(   8) = (   0.0000000   1.1683143   0.7111513  )
         9        H      tau(   9) = (   0.0000000   1.1494343   0.3195216  )
        10        H      tau(  10) = (   0.0000000   0.5826848   1.1333822  )
        11        H      tau(  11) = (   0.5000000   0.2833747   0.3195216  )
        12        H      tau(  12) = (   0.5000000   1.4487443   1.1333822  )
        13        H      tau(  13) = (   0.0000000   0.9289355   0.0297873  )
        14        H      tau(  14) = (   0.0000000   0.8031836   0.8436478  )
        15        H      tau(  15) = (   0.5000000   0.0628759   0.0297873  )
        16        H      tau(  16) = (   0.5000000   1.6692431   0.8436478  )
        17        H      tau(  17) = (   0.6766000   1.3420459   1.5979337  )
        18        H      tau(  18) = (   0.3234000   0.3900732   0.7840732  )
        19        H      tau(  19) = (   0.6766000   0.3900732   0.7840732  )
        20        H      tau(  20) = (   0.3234000   1.3420459   1.5979337  )
        21        H      tau(  21) = (   0.1766000   0.4759863   1.5979337  )
        22        H      tau(  22) = (   0.8234000   1.2561327   0.7840732  )
        23        H      tau(  23) = (   0.1766000   1.2561327   0.7840732  )
        24        H      tau(  24) = (   0.8234000   0.4759863   1.5979337  )

     number of k points=   460

     Number of k-points >= 100: set verbosity='high' to print them.

     Dense  grid:   177821 G-vectors     FFT dimensions: (  50,  90,  81)

     Estimated max dynamical RAM per process >      46.69 MB

     Estimated total dynamical RAM >       5.71 GB

     Initial potential from superposition of free atoms

     starting charge      63.9998, renormalised to      64.0000


     %%%%%%%%%%%%%%%%%%%%%%%%%%%%%%%%%%%%%%%%%%%%%%%%%%%%%%%%%%%%%%%%%%%%%%%%
     %                                                                      %
     % You are using vdW-DF, which was implemented by the Thonhauser group. %
     % Please cite the following two papers that made this development      %
     % possible and the two reviews that describe the various versions:     %
     %                                                                      %
     %   T. Thonhauser et al., PRL 115, 136402 (2015).                      %
     %   T. Thonhauser et al., PRB 76, 125112 (2007).                       %
     %   K. Berland et al., Rep. Prog. Phys. 78, 066501 (2015).             %
     %   D.C. Langreth et al., J. Phys.: Condens. Matter 21, 084203 (2009). %
     %                                                                      %
     % If you are calculating stress with vdW-DF, please also cite:         %
     %                                                                      %
     %   R. Sabatini et al., J. Phys.: Condens. Matter 24, 424209 (2012).   %
     %                                                                      %
     %%%%%%%%%%%%%%%%%%%%%%%%%%%%%%%%%%%%%%%%%%%%%%%%%%%%%%%%%%%%%%%%%%%%%%%%

     %%%%%%%%%%%%%%%%%%%%%%%%%%%%%%%%%%%%%%%%%%%%%%%%%%%%%%%%%%%%%%%%%%%%%%%%
     %                                                                      %
     %  vdW-DF NEWS:                                                        %
     %                                                                      %
     %  * vdW-DF3 is now available. DOI: 10.1021/acs.jctc.0c00471           %
     %    use with input_dft = 'vdW-DF3-opt1' or 'vdW-DF3-opt2'             %
     %                                                                      %
     %  * Unscreened and range-separated hybrid vdW-DF-cx functionals       %
     %    DOI: 10.1063/1.4986522 and 10.1088/1361-648X/ac2ad2               %
     %    use with input_dft = 'vdW-DF-cx0'    and 'vdW-DF-ahcx'            %
     %  * Unscreened and range-separated hybrid vdW-DF2-b86r functionals    %
     %    DOI: 10.1063/1.4986522 and DOI: 10.1103/PhysRevX.12.041003        %
     %    use with input_dft = 'vdW-DF2-br0' and 'vdW-DF2-ahbr'             %
     %                                                                      %
     %%%%%%%%%%%%%%%%%%%%%%%%%%%%%%%%%%%%%%%%%%%%%%%%%%%%%%%%%%%%%%%%%%%%%%%%


     Starting wfcs are   48 randomized atomic wfcs

     total cpu time spent up to now is        6.2 secs

     per-process dynamical memory:    54.1 Mb

     Self-consistent Calculation

     iteration #  1     ecut=    90.00 Ry     beta= 0.70
     Davidson diagonalization with overlap
     ethr =  1.00E-02,  avg # of iterations =  2.0

     total cpu time spent up to now is       14.7 secs

     total energy              =    -277.02913461 Ry
     estimated scf accuracy    <       3.56890856 Ry

     iteration #  2     ecut=    90.00 Ry     beta= 0.70
     Davidson diagonalization with overlap
     ethr =  5.58E-03,  avg # of iterations =  3.0

     total cpu time spent up to now is       26.2 secs

     total energy              =    -278.18030095 Ry
     estimated scf accuracy    <       2.11390574 Ry

     iteration #  3     ecut=    90.00 Ry     beta= 0.70
     Davidson diagonalization with overlap
     ethr =  3.30E-03,  avg # of iterations =  2.0

     total cpu time spent up to now is       34.8 secs

     total energy              =    -278.48673703 Ry
     estimated scf accuracy    <       0.07388599 Ry

     iteration #  4     ecut=    90.00 Ry     beta= 0.70
     Davidson diagonalization with overlap
     ethr =  1.15E-04,  avg # of iterations =  4.0

     total cpu time spent up to now is       47.9 secs

     total energy              =    -278.54434814 Ry
     estimated scf accuracy    <       0.09676367 Ry

     iteration #  5     ecut=    90.00 Ry     beta= 0.70
     Davidson diagonalization with overlap
     ethr =  1.15E-04,  avg # of iterations =  2.0

     total cpu time spent up to now is       55.6 secs

     total energy              =    -278.54871857 Ry
     estimated scf accuracy    <       0.01371108 Ry

     iteration #  6     ecut=    90.00 Ry     beta= 0.70
     Davidson diagonalization with overlap
     ethr =  2.14E-05,  avg # of iterations =  2.0

     total cpu time spent up to now is       63.5 secs

     total energy              =    -278.54794757 Ry
     estimated scf accuracy    <       0.00419921 Ry

     iteration #  7     ecut=    90.00 Ry     beta= 0.70
     Davidson diagonalization with overlap
     ethr =  6.56E-06,  avg # of iterations =  2.0

     total cpu time spent up to now is       72.7 secs

     total energy              =    -278.54992315 Ry
     estimated scf accuracy    <       0.00031445 Ry

     iteration #  8     ecut=    90.00 Ry     beta= 0.70
     Davidson diagonalization with overlap
     ethr =  4.91E-07,  avg # of iterations =  3.1

     total cpu time spent up to now is       82.5 secs

     total energy              =    -278.54978964 Ry
     estimated scf accuracy    <       0.00102932 Ry

     iteration #  9     ecut=    90.00 Ry     beta= 0.70
     Davidson diagonalization with overlap
     ethr =  4.91E-07,  avg # of iterations =  2.0

     total cpu time spent up to now is       89.6 secs

     total energy              =    -278.54965862 Ry
     estimated scf accuracy    <       0.00050962 Ry

     iteration # 10     ecut=    90.00 Ry     beta= 0.70
     Davidson diagonalization with overlap
     ethr =  4.91E-07,  avg # of iterations =  2.0

     total cpu time spent up to now is       97.9 secs

     total energy              =    -278.54965962 Ry
     estimated scf accuracy    <       0.00011594 Ry

     iteration # 11     ecut=    90.00 Ry     beta= 0.70
     Davidson diagonalization with overlap
     ethr =  1.81E-07,  avg # of iterations =  2.0

     total cpu time spent up to now is      105.7 secs

     total energy              =    -278.54966503 Ry
     estimated scf accuracy    <       0.00002027 Ry

     iteration # 12     ecut=    90.00 Ry     beta= 0.70
     Davidson diagonalization with overlap
     ethr =  3.17E-08,  avg # of iterations =  2.8

     total cpu time spent up to now is      114.7 secs

     total energy              =    -278.54966988 Ry
     estimated scf accuracy    <       0.00000110 Ry

     iteration # 13     ecut=    90.00 Ry     beta= 0.70
     Davidson diagonalization with overlap
     ethr =  1.71E-09,  avg # of iterations =  3.5

     total cpu time spent up to now is      125.1 secs

     End of self-consistent calculation

     Number of k-points >= 100: set verbosity='high' to print the bands.

     highest occupied level (ev):    -3.3021

!    total energy              =    -278.54967038 Ry
     estimated scf accuracy    <       0.00000004 Ry

     The total energy is the sum of the following terms:
     one-electron contribution =    -232.28242519 Ry
     hartree contribution      =     137.93877324 Ry
     xc contribution           =     -71.53223264 Ry
     ewald contribution        =    -112.67378578 Ry

     convergence has been achieved in  13 iterations

     Forces acting on atoms (cartesian axes, Ry/au):

     atom    1 type  2   force =     0.00000000   -0.02362445   -0.11557613
     atom    2 type  2   force =     0.00000000    0.02366090   -0.11529756
     atom    3 type  2   force =     0.00000000   -0.02362447   -0.11557582
     atom    4 type  2   force =     0.00000000    0.02366067   -0.11529798
     atom    5 type  2   force =     0.00000000    0.17504951   -0.12970527
     atom    6 type  2   force =     0.00000000   -0.17506638   -0.12997107
     atom    7 type  2   force =     0.00000000    0.17504953   -0.12970494
     atom    8 type  2   force =     0.00000000   -0.17506623   -0.12997122
     atom    9 type  1   force =     0.00000000   -0.00112685    0.10401128
     atom   10 type  1   force =     0.00000000    0.00112501    0.10412343
     atom   11 type  1   force =     0.00000000   -0.00112685    0.10401129
     atom   12 type  1   force =     0.00000000    0.00112500    0.10412337
     atom   13 type  1   force =     0.00000000    0.02191000    0.00567036
     atom   14 type  1   force =     0.00000000   -0.02191996    0.00567742
     atom   15 type  1   force =     0.00000000    0.02191005    0.00567045
     atom   16 type  1   force =     0.00000000   -0.02191999    0.00567735
     atom   17 type  1   force =     0.14204032   -0.08763862    0.06776509
     atom   18 type  1   force =    -0.14203016    0.08763480    0.06776865
     atom   19 type  1   force =     0.14203016    0.08763480    0.06776865
     atom   20 type  1   force =    -0.14204032   -0.08763862    0.06776509
     atom   21 type  1   force =     0.14204040   -0.08763868    0.06776516
     atom   22 type  1   force =    -0.14203013    0.08763477    0.06776861
     atom   23 type  1   force =     0.14203013    0.08763477    0.06776861
     atom   24 type  1   force =    -0.14204040   -0.08763868    0.06776516

     Total force =     0.741956     Total SCF correction =     0.000158


     Computing stress (Cartesian axis) and pressure

          total   stress  (Ry/bohr**3)                   (kbar)     P=      130.01
   0.00131714   0.00000000   0.00000000          193.76        0.00        0.00
   0.00000000   0.00038404  -0.00000004            0.00       56.49       -0.01
   0.00000000  -0.00000004   0.00095021            0.00       -0.01      139.78


     BFGS Geometry Optimization
     Energy error            =      0.0E+00 Ry
     Gradient error          =      1.8E-01 Ry/Bohr

     number of scf cycles    =   1
     number of bfgs steps    =   0

     energy             new  =    -278.5496703785 Ry

     new trust radius        =       0.2180383398 bohr
     new conv_thr            =       0.0000001000 Ry


ATOMIC_POSITIONS (crystal)
O                0.0000000000        0.6631317566        0.0544151902
O                0.0000000000        0.3368708169        0.5544360996
O                0.5000000000        0.1631317552        0.0544152138
O                0.5000000000        0.8368708012        0.5544360681
O                0.5000000000        0.8378610630        0.9271534916
O                0.5000000000        0.1621377452        0.4271334887
O                0.0000000000        0.3378610647        0.9271535169
O                0.0000000000        0.6621377559        0.4271334774
H                0.0000000000        0.6635204563        0.2041157880
H                0.0000000000        0.3364794145        0.7041242454
H                0.5000000000        0.1635204558        0.2041157887
H                0.5000000000        0.8364794131        0.7041242409
H                0.0000000000        0.5378471700        0.0187260923
H                0.0000000000        0.4621521266        0.5187266193
H                0.5000000000        0.0378471735        0.0187260991
H                0.5000000000        0.9621521247        0.5187266140
H                0.6939733437        0.7686114362        0.9867921198
H                0.3060278993        0.2313882938        0.4867923871
H                0.6939721007        0.2313882938        0.4867923871
H                0.3060266563        0.7686114362        0.9867921198
H                0.1939733534        0.2686114319        0.9867921248
H                0.8060279024        0.7313882916        0.4867923843
H                0.1939720976        0.7313882916        0.4867923843
H                0.8060266466        0.2686114319        0.9867921248



     Writing config-only to output data dir ./iceIh_vdw/iceIh_vdw.save/ :
     XML data file
     NEW-OLD atomic charge density approx. for the potential

     total cpu time spent up to now is      133.9 secs

     per-process dynamical memory:    54.7 Mb

     Self-consistent Calculation

     iteration #  1     ecut=    90.00 Ry     beta= 0.70
     Davidson diagonalization with overlap
     ethr =  1.00E-06,  avg # of iterations = 11.0

     total cpu time spent up to now is      163.0 secs

     total energy              =    -278.58249760 Ry
     estimated scf accuracy    <       0.15022513 Ry

     iteration #  2     ecut=    90.00 Ry     beta= 0.70
     Davidson diagonalization with overlap
     ethr =  2.35E-04,  avg # of iterations =  3.0

     total cpu time spent up to now is      173.5 secs

     total energy              =    -278.61585678 Ry
     estimated scf accuracy    <       0.06510845 Ry

     iteration #  3     ecut=    90.00 Ry     beta= 0.70
     Davidson diagonalization with overlap
     ethr =  1.02E-04,  avg # of iterations =  2.6

     total cpu time spent up to now is      182.7 secs

     total energy              =    -278.63076057 Ry
     estimated scf accuracy    <       0.00165369 Ry

     iteration #  4     ecut=    90.00 Ry     beta= 0.70
     Davidson diagonalization with overlap
     ethr =  2.58E-06,  avg # of iterations =  3.0

     total cpu time spent up to now is      193.9 secs

     total energy              =    -278.63136510 Ry
     estimated scf accuracy    <       0.00091547 Ry

     iteration #  5     ecut=    90.00 Ry     beta= 0.70
     Davidson diagonalization with overlap
     ethr =  1.43E-06,  avg # of iterations =  2.0

     total cpu time spent up to now is      202.6 secs

     total energy              =    -278.63147174 Ry
     estimated scf accuracy    <       0.00009898 Ry

     iteration #  6     ecut=    90.00 Ry     beta= 0.70
     Davidson diagonalization with overlap
     ethr =  1.55E-07,  avg # of iterations =  4.3

     total cpu time spent up to now is      215.0 secs

     total energy              =    -278.63150458 Ry
     estimated scf accuracy    <       0.00008331 Ry

     iteration #  7     ecut=    90.00 Ry     beta= 0.70
     Davidson diagonalization with overlap
     ethr =  1.30E-07,  avg # of iterations =  2.5

     total cpu time spent up to now is      223.9 secs

     total energy              =    -278.63151956 Ry
     estimated scf accuracy    <       0.00000137 Ry

     iteration #  8     ecut=    90.00 Ry     beta= 0.70
     Davidson diagonalization with overlap
     ethr =  2.15E-09,  avg # of iterations =  5.6

     total cpu time spent up to now is      239.3 secs

     total energy              =    -278.63152123 Ry
     estimated scf accuracy    <       0.00000369 Ry

     iteration #  9     ecut=    90.00 Ry     beta= 0.70
     Davidson diagonalization with overlap
     ethr =  2.15E-09,  avg # of iterations =  2.8

     total cpu time spent up to now is      248.5 secs

     total energy              =    -278.63152121 Ry
     estimated scf accuracy    <       0.00000067 Ry

     iteration # 10     ecut=    90.00 Ry     beta= 0.70
     Davidson diagonalization with overlap
     ethr =  1.05E-09,  avg # of iterations =  3.0

     total cpu time spent up to now is      258.6 secs

     End of self-consistent calculation

     Number of k-points >= 100: set verbosity='high' to print the bands.

     highest occupied level (ev):    -3.0701

!    total energy              =    -278.63152142 Ry
     estimated scf accuracy    <       0.00000003 Ry

     The total energy is the sum of the following terms:
     one-electron contribution =    -221.20008761 Ry
     hartree contribution      =     132.99753970 Ry
     xc contribution           =     -70.41565090 Ry
     ewald contribution        =    -120.01332261 Ry

     convergence has been achieved in  10 iterations

     Forces acting on atoms (cartesian axes, Ry/au):

     atom    1 type  2   force =     0.00000000    0.06086685    0.06962128
     atom    2 type  2   force =     0.00000000   -0.06081851    0.06949571
     atom    3 type  2   force =     0.00000000    0.06086682    0.06962113
     atom    4 type  2   force =     0.00000000   -0.06081840    0.06949588
     atom    5 type  2   force =     0.00000000   -0.07598585    0.06393540
     atom    6 type  2   force =     0.00000000    0.07608080    0.06439893
     atom    7 type  2   force =     0.00000000   -0.07598587    0.06393535
     atom    8 type  2   force =     0.00000000    0.07608074    0.06439891
     atom    9 type  1   force =     0.00000000    0.00478074   -0.03846317
     atom   10 type  1   force =     0.00000000   -0.00477321   -0.03843495
     atom   11 type  1   force =     0.00000000    0.00478073   -0.03846306
     atom   12 type  1   force =     0.00000000   -0.00477326   -0.03843508
     atom   13 type  1   force =     0.00000000   -0.04707278   -0.02545997
     atom   14 type  1   force =     0.00000000    0.04702087   -0.02545214
     atom   15 type  1   force =     0.00000000   -0.04707278   -0.02545996
     atom   16 type  1   force =     0.00000000    0.04702078   -0.02545214
     atom   17 type  1   force =    -0.04629278    0.02895860   -0.03489284
     atom   18 type  1   force =     0.04631594   -0.02900803   -0.03492770
     atom   19 type  1   force =    -0.04631594   -0.02900803   -0.03492770
     atom   20 type  1   force =     0.04629278    0.02895860   -0.03489284
     atom   21 type  1   force =    -0.04629280    0.02895860   -0.03489281
     atom   22 type  1   force =     0.04631591   -0.02900801   -0.03492771
     atom   23 type  1   force =    -0.04631591   -0.02900801   -0.03492771
     atom   24 type  1   force =     0.04629280    0.02895860   -0.03489281

     Total force =     0.353310     Total SCF correction =     0.000164


     Computing stress (Cartesian axis) and pressure

          total   stress  (Ry/bohr**3)                   (kbar)     P=      -12.12
  -0.00033813   0.00000000   0.00000000          -49.74        0.00        0.00
   0.00000000   0.00027618  -0.00000003            0.00       40.63       -0.01
   0.00000000  -0.00000003  -0.00018531            0.00       -0.01      -27.26

     Energy error            =      8.2E-02 Ry
     Gradient error          =      7.6E-02 Ry/Bohr

     number of scf cycles    =   2
     number of bfgs steps    =   1

     energy             old  =    -278.5496703785 Ry
     energy             new  =    -278.6315214239 Ry

     CASE: energy            _new < energy            _old

     new trust radius        =       0.0652790742 bohr
     new conv_thr            =       0.0000000761 Ry


ATOMIC_POSITIONS (crystal)
O                0.0000000000        0.6661024979        0.0578966566
O                0.0000000000        0.3339025141        0.5579113937
O                0.5000000000        0.1661024949        0.0578966730
O                0.5000000000        0.8339025033        0.5579113701
O                0.5000000000        0.8343601514        0.9303148366
O                0.5000000000        0.1656433195        0.4303187776
O                0.0000000000        0.3343601524        0.9303148597
O                0.0000000000        0.6656433272        0.4303187650
H                0.0000000000        0.6637548310        0.2022534013
H                0.0000000000        0.3362454088        0.7022635114
H                0.5000000000        0.1637548298        0.2022534079
H                0.5000000000        0.8362454052        0.7022635001
H                0.0000000000        0.5355548736        0.0173973668
H                0.0000000000        0.4644418468        0.5173983157
H                0.5000000000        0.0355548767        0.0173973738
H                0.5000000000        0.9644418402        0.5173983101
H                0.6903664850        0.7699157844        0.9850622215
H                0.3096367634        0.2300815000        0.4850606634
H                0.6903632366        0.2300815000        0.4850606634
H                0.3096335150        0.7699157844        0.9850622215
H                0.1903664925        0.2699157803        0.9850622283
H                0.8096367641        0.7300814990        0.4850606602
H                0.1903632359        0.7300814990        0.4850606602
H                0.8096335075        0.2699157803        0.9850622283



     Writing config-only to output data dir ./iceIh_vdw/iceIh_vdw.save/ :
     XML data file
     NEW-OLD atomic charge density approx. for the potential

     total cpu time spent up to now is      267.4 secs

     per-process dynamical memory:    54.7 Mb

     Self-consistent Calculation

     iteration #  1     ecut=    90.00 Ry     beta= 0.70
     Davidson diagonalization with overlap
     ethr =  1.00E-06,  avg # of iterations =  9.0

     total cpu time spent up to now is      290.3 secs

     total energy              =    -278.67865869 Ry
     estimated scf accuracy    <       0.01289703 Ry

     iteration #  2     ecut=    90.00 Ry     beta= 0.70
     Davidson diagonalization with overlap
     ethr =  2.02E-05,  avg # of iterations =  3.0

     total cpu time spent up to now is      300.5 secs

     total energy              =    -278.68132076 Ry
     estimated scf accuracy    <       0.00403976 Ry

     iteration #  3     ecut=    90.00 Ry     beta= 0.70
     Davidson diagonalization with overlap
     ethr =  6.31E-06,  avg # of iterations =  3.1

     total cpu time spent up to now is      310.3 secs

     total energy              =    -278.68232081 Ry
     estimated scf accuracy    <       0.00024112 Ry

     iteration #  4     ecut=    90.00 Ry     beta= 0.70
     Davidson diagonalization with overlap
     ethr =  3.77E-07,  avg # of iterations =  2.3

     total cpu time spent up to now is      319.1 secs

     total energy              =    -278.68236578 Ry
     estimated scf accuracy    <       0.00002014 Ry

     iteration #  5     ecut=    90.00 Ry     beta= 0.70
     Davidson diagonalization with overlap
     ethr =  3.15E-08,  avg # of iterations =  3.0

     total cpu time spent up to now is      329.5 secs

     total energy              =    -278.68237283 Ry
     estimated scf accuracy    <       0.00000134 Ry

     iteration #  6     ecut=    90.00 Ry     beta= 0.70
     Davidson diagonalization with overlap
     ethr =  2.09E-09,  avg # of iterations =  2.6

     total cpu time spent up to now is      338.8 secs

     total energy              =    -278.68237288 Ry
     estimated scf accuracy    <       0.00000041 Ry

     iteration #  7     ecut=    90.00 Ry     beta= 0.70
     Davidson diagonalization with overlap
     ethr =  6.33E-10,  avg # of iterations =  3.4

     total cpu time spent up to now is      349.5 secs

     total energy              =    -278.68237302 Ry
     estimated scf accuracy    <       0.00000008 Ry

     iteration #  8     ecut=    90.00 Ry     beta= 0.70
     Davidson diagonalization with overlap
     ethr =  1.29E-10,  avg # of iterations =  2.2

     total cpu time spent up to now is      357.8 secs

     End of self-consistent calculation

     Number of k-points >= 100: set verbosity='high' to print the bands.

     highest occupied level (ev):    -3.1465

!    total energy              =    -278.68237302 Ry
     estimated scf accuracy    <          6.1E-09 Ry

     The total energy is the sum of the following terms:
     one-electron contribution =    -222.82692926 Ry
     hartree contribution      =     133.72744832 Ry
     xc contribution           =     -70.58205242 Ry
     ewald contribution        =    -119.00083966 Ry

     convergence has been achieved in   8 iterations

     Forces acting on atoms (cartesian axes, Ry/au):

     atom    1 type  2   force =     0.00000000   -0.01622434    0.01285558
     atom    2 type  2   force =     0.00000000    0.01625191    0.01271099
     atom    3 type  2   force =     0.00000000   -0.01622432    0.01285549
     atom    4 type  2   force =     0.00000000    0.01625193    0.01271113
     atom    5 type  2   force =     0.00000000   -0.02542768    0.03182799
     atom    6 type  2   force =     0.00000000    0.02535849    0.03182486
     atom    7 type  2   force =     0.00000000   -0.02542769    0.03182797
     atom    8 type  2   force =     0.00000000    0.02535844    0.03182486
     atom    9 type  1   force =     0.00000000    0.00521512   -0.01174689
     atom   10 type  1   force =     0.00000000   -0.00519103   -0.01171883
     atom   11 type  1   force =     0.00000000    0.00521511   -0.01174682
     atom   12 type  1   force =     0.00000000   -0.00519105   -0.01171892
     atom   13 type  1   force =     0.00000000    0.01743466   -0.00405363
     atom   14 type  1   force =     0.00000000   -0.01742280   -0.00405398
     atom   15 type  1   force =     0.00000000    0.01743464   -0.00405363
     atom   16 type  1   force =     0.00000000   -0.01742280   -0.00405401
     atom   17 type  1   force =    -0.02247270    0.00961725   -0.01443021
     atom   18 type  1   force =     0.02243642   -0.00961441   -0.01439284
     atom   19 type  1   force =    -0.02243642   -0.00961441   -0.01439284
     atom   20 type  1   force =     0.02247270    0.00961725   -0.01443021
     atom   21 type  1   force =    -0.02247272    0.00961726   -0.01443019
     atom   22 type  1   force =     0.02243641   -0.00961439   -0.01439285
     atom   23 type  1   force =    -0.02243641   -0.00961439   -0.01439285
     atom   24 type  1   force =     0.02247272    0.00961726   -0.01443019

     Total force =     0.129282     Total SCF correction =     0.000104


     Computing stress (Cartesian axis) and pressure

          total   stress  (Ry/bohr**3)                   (kbar)     P=        2.18
  -0.00006140   0.00000000   0.00000000           -9.03        0.00        0.00
   0.00000000   0.00001999   0.00000007            0.00        2.94        0.01
   0.00000000   0.00000007   0.00008577            0.00        0.01       12.62

     Energy error            =      5.1E-02 Ry
     Gradient error          =      3.2E-02 Ry/Bohr

     number of scf cycles    =   3
     number of bfgs steps    =   2

     energy             old  =    -278.6315214239 Ry
     energy             new  =    -278.6823730225 Ry

     CASE: energy            _new < energy            _old

     new trust radius        =       0.0559159304 bohr
     new conv_thr            =       0.0000000318 Ry


ATOMIC_POSITIONS (crystal)
O                0.0000000000        0.6646879303        0.0592933718
O                0.0000000000        0.3353196128        0.5592937419
O                0.5000000000        0.1646879291        0.0592933787
O                0.5000000000        0.8353196037        0.5592937321
O                0.5000000000        0.8318525715        0.9335604646
O                0.5000000000        0.1681446722        0.4335647067
O                0.0000000000        0.3318525713        0.9335604850
O                0.0000000000        0.6681446758        0.4335646941
H                0.0000000000        0.6642356944        0.2010003427
H                0.0000000000        0.3357667523        0.7010131198
H                0.5000000000        0.1642356921        0.2010003570
H                0.5000000000        0.8357667463        0.7010130996
H                0.0000000000        0.5370924914        0.0169770061
H                0.0000000000        0.4629052761        0.5169779223
H                0.5000000000        0.0370924923        0.0169770130
H                0.5000000000        0.9629052697        0.5169779143
H                0.6865730048        0.7708795120        0.9835788189
H                0.3134245273        0.2291179944        0.4835808580
H                0.6865754727        0.2291179944        0.4835808580
H                0.3134269952        0.7708795120        0.9835788189
H                0.1865730089        0.2708795083        0.9835788274
H                0.8134245257        0.7291179946        0.4835808539
H                0.1865754743        0.7291179946        0.4835808539
H                0.8134269911        0.2708795083        0.9835788274



     Writing config-only to output data dir ./iceIh_vdw/iceIh_vdw.save/ :
     XML data file
     NEW-OLD atomic charge density approx. for the potential

     total cpu time spent up to now is      366.8 secs

     per-process dynamical memory:    54.7 Mb

     Self-consistent Calculation

     iteration #  1     ecut=    90.00 Ry     beta= 0.70
     Davidson diagonalization with overlap
     ethr =  1.00E-06,  avg # of iterations =  8.0

     total cpu time spent up to now is      387.6 secs

     total energy              =    -278.68679279 Ry
     estimated scf accuracy    <       0.00837128 Ry

     iteration #  2     ecut=    90.00 Ry     beta= 0.70
     Davidson diagonalization with overlap
     ethr =  1.31E-05,  avg # of iterations =  3.0

     total cpu time spent up to now is      398.3 secs

     total energy              =    -278.68897716 Ry
     estimated scf accuracy    <       0.00337665 Ry

     iteration #  3     ecut=    90.00 Ry     beta= 0.70
     Davidson diagonalization with overlap
     ethr =  5.28E-06,  avg # of iterations =  2.0

     total cpu time spent up to now is      406.7 secs

     total energy              =    -278.68961479 Ry
     estimated scf accuracy    <       0.00010411 Ry

     iteration #  4     ecut=    90.00 Ry     beta= 0.70
     Davidson diagonalization with overlap
     ethr =  1.63E-07,  avg # of iterations =  3.8

     total cpu time spent up to now is      418.4 secs

     total energy              =    -278.68967297 Ry
     estimated scf accuracy    <       0.00007486 Ry

     iteration #  5     ecut=    90.00 Ry     beta= 0.70
     Davidson diagonalization with overlap
     ethr =  1.17E-07,  avg # of iterations =  2.0

     total cpu time spent up to now is      426.8 secs

     total energy              =    -278.68967751 Ry
     estimated scf accuracy    <       0.00001083 Ry

     iteration #  6     ecut=    90.00 Ry     beta= 0.70
     Davidson diagonalization with overlap
     ethr =  1.69E-08,  avg # of iterations =  3.0

     total cpu time spent up to now is      437.9 secs

     total energy              =    -278.68968149 Ry
     estimated scf accuracy    <       0.00000603 Ry

     iteration #  7     ecut=    90.00 Ry     beta= 0.70
     Davidson diagonalization with overlap
     ethr =  9.42E-09,  avg # of iterations =  2.0

     total cpu time spent up to now is      446.5 secs

     total energy              =    -278.68968236 Ry
     estimated scf accuracy    <       0.00000021 Ry

     iteration #  8     ecut=    90.00 Ry     beta= 0.70
     Davidson diagonalization with overlap
     ethr =  3.23E-10,  avg # of iterations =  4.0

     total cpu time spent up to now is      459.2 secs

     total energy              =    -278.68968253 Ry
     estimated scf accuracy    <       0.00000009 Ry

     iteration #  9     ecut=    90.00 Ry     beta= 0.70
     Davidson diagonalization with overlap
     ethr =  1.46E-10,  avg # of iterations =  1.6

     total cpu time spent up to now is      466.2 secs

     End of self-consistent calculation

     Number of k-points >= 100: set verbosity='high' to print the bands.

     highest occupied level (ev):    -3.2211

!    total energy              =    -278.68968251 Ry
     estimated scf accuracy    <       0.00000003 Ry

     The total energy is the sum of the following terms:
     one-electron contribution =    -225.74025819 Ry
     hartree contribution      =     135.03204858 Ry
     xc contribution           =     -70.87585599 Ry
     ewald contribution        =    -117.10561691 Ry

     convergence has been achieved in   9 iterations

     Forces acting on atoms (cartesian axes, Ry/au):

     atom    1 type  2   force =     0.00000000    0.00331353   -0.00478466
     atom    2 type  2   force =     0.00000000   -0.00340725   -0.00469442
     atom    3 type  2   force =     0.00000000    0.00331354   -0.00478458
     atom    4 type  2   force =     0.00000000   -0.00340722   -0.00469453
     atom    5 type  2   force =     0.00000000    0.01993478   -0.00864176
     atom    6 type  2   force =     0.00000000   -0.01985774   -0.00899529
     atom    7 type  2   force =     0.00000000    0.01993479   -0.00864179
     atom    8 type  2   force =     0.00000000   -0.01985772   -0.00899526
     atom    9 type  1   force =     0.00000000    0.00028145    0.00596678
     atom   10 type  1   force =     0.00000000   -0.00028157    0.00585135
     atom   11 type  1   force =     0.00000000    0.00028145    0.00596671
     atom   12 type  1   force =     0.00000000   -0.00028157    0.00585145
     atom   13 type  1   force =     0.00000000   -0.00001546   -0.00283743
     atom   14 type  1   force =     0.00000000    0.00007249   -0.00287191
     atom   15 type  1   force =     0.00000000   -0.00001548   -0.00283744
     atom   16 type  1   force =     0.00000000    0.00007247   -0.00287191
     atom   17 type  1   force =     0.00850233   -0.01272761    0.00524343
     atom   18 type  1   force =    -0.00849196    0.01270750    0.00526024
     atom   19 type  1   force =     0.00849196    0.01270750    0.00526024
     atom   20 type  1   force =    -0.00850233   -0.01272761    0.00524343
     atom   21 type  1   force =     0.00850233   -0.01272762    0.00524344
     atom   22 type  1   force =    -0.00849194    0.01270749    0.00526022
     atom   23 type  1   force =     0.00849194    0.01270749    0.00526022
     atom   24 type  1   force =    -0.00850233   -0.01272762    0.00524344

     Total force =     0.065532     Total SCF correction =     0.000119


     Computing stress (Cartesian axis) and pressure

          total   stress  (Ry/bohr**3)                   (kbar)     P=       36.30
   0.00024349   0.00000000   0.00000000           35.82        0.00        0.00
   0.00000000   0.00023745  -0.00000000            0.00       34.93       -0.00
   0.00000000  -0.00000000   0.00025930            0.00       -0.00       38.14

     Energy error            =      7.3E-03 Ry
     Gradient error          =      2.0E-02 Ry/Bohr

     number of scf cycles    =   4
     number of bfgs steps    =   3

     energy             old  =    -278.6823730225 Ry
     energy             new  =    -278.6896825088 Ry

     CASE: energy            _new < energy            _old

     new trust radius        =       0.0176991196 bohr
     new conv_thr            =       0.0000000199 Ry


ATOMIC_POSITIONS (crystal)
O                0.0000000000        0.6650059993        0.0590080838
O                0.0000000000        0.3349967821        0.5590140682
O                0.5000000000        0.1650059984        0.0590080955
O                0.5000000000        0.8349967745        0.5590140519
O                0.5000000000        0.8329538964        0.9329414029
O                0.5000000000        0.1670476785        0.4329274261
O                0.0000000000        0.3329538967        0.9329414218
O                0.0000000000        0.6670476833        0.4329274150
H                0.0000000000        0.6642230503        0.2013719098
H                0.0000000000        0.3357792534        0.7013784644
H                0.5000000000        0.1642230481        0.2013719199
H                0.5000000000        0.8357792473        0.7013784502
H                0.0000000000        0.5369444742        0.0168268434
H                0.0000000000        0.4630559991        0.5168259497
H                0.5000000000        0.0369444743        0.0168268496
H                0.5000000000        0.9630559916        0.5168259420
H                0.6875069136        0.7702012080        0.9839251442
H                0.3124919303        0.2297952324        0.4839277966
H                0.6875080697        0.2297952324        0.4839277966
H                0.3124930864        0.7702012080        0.9839251442
H                0.1875069177        0.2702012040        0.9839251532
H                0.8124919304        0.7297952318        0.4839277919
H                0.1875080696        0.7297952318        0.4839277919
H                0.8124930823        0.2702012040        0.9839251532



     Writing config-only to output data dir ./iceIh_vdw/iceIh_vdw.save/ :
     XML data file
     NEW-OLD atomic charge density approx. for the potential

     total cpu time spent up to now is      475.0 secs

     per-process dynamical memory:    54.7 Mb

     Self-consistent Calculation

     iteration #  1     ecut=    90.00 Ry     beta= 0.70
     Davidson diagonalization with overlap
     ethr =  1.00E-06,  avg # of iterations =  4.0

     total cpu time spent up to now is      489.0 secs

     total energy              =    -278.69121410 Ry
     estimated scf accuracy    <       0.00076548 Ry

     iteration #  2     ecut=    90.00 Ry     beta= 0.70
     Davidson diagonalization with overlap
     ethr =  1.20E-06,  avg # of iterations =  3.0

     total cpu time spent up to now is      499.6 secs

     total energy              =    -278.69140568 Ry
     estimated scf accuracy    <       0.00033072 Ry

     iteration #  3     ecut=    90.00 Ry     beta= 0.70
     Davidson diagonalization with overlap
     ethr =  5.17E-07,  avg # of iterations =  2.2

     total cpu time spent up to now is      508.5 secs

     total energy              =    -278.69147058 Ry
     estimated scf accuracy    <       0.00000976 Ry

     iteration #  4     ecut=    90.00 Ry     beta= 0.70
     Davidson diagonalization with overlap
     ethr =  1.52E-08,  avg # of iterations =  3.6

     total cpu time spent up to now is      520.4 secs

     total energy              =    -278.69147575 Ry
     estimated scf accuracy    <       0.00000718 Ry

     iteration #  5     ecut=    90.00 Ry     beta= 0.70
     Davidson diagonalization with overlap
     ethr =  1.12E-08,  avg # of iterations =  2.0

     total cpu time spent up to now is      528.8 secs

     total energy              =    -278.69147614 Ry
     estimated scf accuracy    <       0.00000106 Ry

     iteration #  6     ecut=    90.00 Ry     beta= 0.70
     Davidson diagonalization with overlap
     ethr =  1.66E-09,  avg # of iterations =  3.3

     total cpu time spent up to now is      540.2 secs

     total energy              =    -278.69147657 Ry
     estimated scf accuracy    <       0.00000047 Ry

     iteration #  7     ecut=    90.00 Ry     beta= 0.70
     Davidson diagonalization with overlap
     ethr =  7.31E-10,  avg # of iterations =  2.0

     total cpu time spent up to now is      548.5 secs

     total energy              =    -278.69147662 Ry
     estimated scf accuracy    <       0.00000003 Ry

     iteration #  8     ecut=    90.00 Ry     beta= 0.70
     Davidson diagonalization with overlap
     ethr =  4.79E-11,  avg # of iterations =  3.6

     total cpu time spent up to now is      560.0 secs

     End of self-consistent calculation

     Number of k-points >= 100: set verbosity='high' to print the bands.

     highest occupied level (ev):    -3.2066

!    total energy              =    -278.69147663 Ry
     estimated scf accuracy    <          5.3E-09 Ry

     The total energy is the sum of the following terms:
     one-electron contribution =    -224.89633731 Ry
     hartree contribution      =     134.65335344 Ry
     xc contribution           =     -70.78991678 Ry
     ewald contribution        =    -117.65857597 Ry

     convergence has been achieved in   8 iterations

     Forces acting on atoms (cartesian axes, Ry/au):

     atom    1 type  2   force =     0.00000000    0.00080334   -0.00034665
     atom    2 type  2   force =     0.00000000   -0.00078593   -0.00041507
     atom    3 type  2   force =     0.00000000    0.00080332   -0.00034667
     atom    4 type  2   force =     0.00000000   -0.00078594   -0.00041503
     atom    5 type  2   force =     0.00000000    0.00222368    0.00459116
     atom    6 type  2   force =     0.00000000   -0.00213553    0.00438544
     atom    7 type  2   force =     0.00000000    0.00222367    0.00459115
     atom    8 type  2   force =     0.00000000   -0.00213555    0.00438544
     atom    9 type  1   force =     0.00000000    0.00087019    0.00125667
     atom   10 type  1   force =     0.00000000   -0.00087144    0.00125851
     atom   11 type  1   force =     0.00000000    0.00087019    0.00125668
     atom   12 type  1   force =     0.00000000   -0.00087145    0.00125850
     atom   13 type  1   force =     0.00000000    0.00247937   -0.00271286
     atom   14 type  1   force =     0.00000000   -0.00250789   -0.00272202
     atom   15 type  1   force =     0.00000000    0.00247937   -0.00271285
     atom   16 type  1   force =     0.00000000   -0.00250787   -0.00272204
     atom   17 type  1   force =    -0.00242133   -0.00399549   -0.00132022
     atom   18 type  1   force =     0.00244344    0.00395760   -0.00132737
     atom   19 type  1   force =    -0.00244344    0.00395760   -0.00132737
     atom   20 type  1   force =     0.00242133   -0.00399549   -0.00132022
     atom   21 type  1   force =    -0.00242135   -0.00399548   -0.00132022
     atom   22 type  1   force =     0.00244343    0.00395761   -0.00132737
     atom   23 type  1   force =    -0.00244343    0.00395761   -0.00132737
     atom   24 type  1   force =     0.00242135   -0.00399548   -0.00132022

     Total force =     0.018825     Total SCF correction =     0.000049


     Computing stress (Cartesian axis) and pressure

          total   stress  (Ry/bohr**3)                   (kbar)     P=       25.78
   0.00013703   0.00000000   0.00000000           20.16        0.00        0.00
   0.00000000   0.00018196   0.00000004            0.00       26.77        0.01
   0.00000000   0.00000004   0.00020669            0.00        0.01       30.40

     Energy error            =      1.8E-03 Ry
     Gradient error          =      4.6E-03 Ry/Bohr

     number of scf cycles    =   5
     number of bfgs steps    =   4

     energy             old  =    -278.6896825088 Ry
     energy             new  =    -278.6914766304 Ry

     CASE: energy            _new < energy            _old

     new trust radius        =       0.0060008988 bohr
     new conv_thr            =       0.0000000046 Ry


ATOMIC_POSITIONS (crystal)
O                0.0000000000        0.6651088123        0.0589936621
O                0.0000000000        0.3348945579        0.5589948263
O                0.5000000000        0.1651088102        0.0589936724
O                0.5000000000        0.8348945495        0.5589948123
O                0.5000000000        0.8332123782        0.9332987253
O                0.5000000000        0.1667962766        0.4332659037
O                0.0000000000        0.3332123777        0.9332987429
O                0.0000000000        0.6667962800        0.4332658930
H                0.0000000000        0.6642980115        0.2014883120
H                0.0000000000        0.3357042309        0.7014940811
H                0.5000000000        0.1642980091        0.2014883229
H                0.5000000000        0.8357042241        0.7014940664
H                0.0000000000        0.5371191530        0.0165694124
H                0.0000000000        0.4628796628        0.5165675112
H                0.5000000000        0.0371191535        0.0165694187
H                0.5000000000        0.9628796567        0.5165675025
H                0.6872375336        0.7698287844        0.9838307689
H                0.3127642238        0.2301646816        0.4838330291
H                0.6872357762        0.2301646816        0.4838330291
H                0.3127624664        0.7698287844        0.9838307689
H                0.1872375361        0.2698287807        0.9838307785
H                0.8127642234        0.7301646813        0.4838330238
H                0.1872357766        0.7301646813        0.4838330238
H                0.8127624639        0.2698287807        0.9838307785



     Writing config-only to output data dir ./iceIh_vdw/iceIh_vdw.save/ :
     XML data file
     NEW-OLD atomic charge density approx. for the potential

     total cpu time spent up to now is      568.8 secs

     per-process dynamical memory:    56.2 Mb

     Self-consistent Calculation

     iteration #  1     ecut=    90.00 Ry     beta= 0.70
     Davidson diagonalization with overlap
     ethr =  1.00E-06,  avg # of iterations =  3.0

     Threshold (ethr) on eigenvalues was too large:
     Diagonalizing with lowered threshold

     Davidson diagonalization with overlap
     ethr =  3.63E-08,  avg # of iterations =  2.0

     total cpu time spent up to now is      587.2 secs

     total energy              =    -278.69184153 Ry
     estimated scf accuracy    <       0.00002689 Ry

     iteration #  2     ecut=    90.00 Ry     beta= 0.70
     Davidson diagonalization with overlap
     ethr =  4.20E-08,  avg # of iterations =  2.0

     total cpu time spent up to now is      595.5 secs

     total energy              =    -278.69184544 Ry
     estimated scf accuracy    <       0.00000114 Ry

     iteration #  3     ecut=    90.00 Ry     beta= 0.70
     Davidson diagonalization with overlap
     ethr =  1.78E-09,  avg # of iterations =  2.8

     total cpu time spent up to now is      605.5 secs

     total energy              =    -278.69184573 Ry
     estimated scf accuracy    <       0.00000022 Ry

     iteration #  4     ecut=    90.00 Ry     beta= 0.70
     Davidson diagonalization with overlap
     ethr =  3.51E-10,  avg # of iterations =  2.5

     total cpu time spent up to now is      614.7 secs

     total energy              =    -278.69184579 Ry
     estimated scf accuracy    <       0.00000002 Ry

     iteration #  5     ecut=    90.00 Ry     beta= 0.70
     Davidson diagonalization with overlap
     ethr =  3.74E-11,  avg # of iterations =  2.6

     total cpu time spent up to now is      624.2 secs

     End of self-consistent calculation

     Number of k-points >= 100: set verbosity='high' to print the bands.

     highest occupied level (ev):    -3.2088

!    total energy              =    -278.69184579 Ry
     estimated scf accuracy    <          3.9E-09 Ry

     The total energy is the sum of the following terms:
     one-electron contribution =    -224.87287559 Ry
     hartree contribution      =     134.64367611 Ry
     xc contribution           =     -70.78717321 Ry
     ewald contribution        =    -117.67547310 Ry

     convergence has been achieved in   5 iterations

     Forces acting on atoms (cartesian axes, Ry/au):

     atom    1 type  2   force =     0.00000000    0.00108235    0.00068828
     atom    2 type  2   force =     0.00000000   -0.00109807    0.00069944
     atom    3 type  2   force =     0.00000000    0.00108235    0.00068829
     atom    4 type  2   force =     0.00000000   -0.00109805    0.00069944
     atom    5 type  2   force =     0.00000000    0.00080725    0.00413604
     atom    6 type  2   force =     0.00000000   -0.00073415    0.00397976
     atom    7 type  2   force =     0.00000000    0.00080724    0.00413602
     atom    8 type  2   force =     0.00000000   -0.00073416    0.00397977
     atom    9 type  1   force =     0.00000000    0.00052541   -0.00006669
     atom   10 type  1   force =     0.00000000   -0.00052002   -0.00009897
     atom   11 type  1   force =     0.00000000    0.00052540   -0.00006670
     atom   12 type  1   force =     0.00000000   -0.00052002   -0.00009895
     atom   13 type  1   force =     0.00000000    0.00215603   -0.00205456
     atom   14 type  1   force =     0.00000000   -0.00215581   -0.00208077
     atom   15 type  1   force =     0.00000000    0.00215602   -0.00205456
     atom   16 type  1   force =     0.00000000   -0.00215582   -0.00208077
     atom   17 type  1   force =    -0.00190198   -0.00311675   -0.00128848
     atom   18 type  1   force =     0.00192463    0.00308526   -0.00131279
     atom   19 type  1   force =    -0.00192463    0.00308526   -0.00131279
     atom   20 type  1   force =     0.00190198   -0.00311675   -0.00128848
     atom   21 type  1   force =    -0.00190198   -0.00311675   -0.00128847
     atom   22 type  1   force =     0.00192463    0.00308526   -0.00131279
     atom   23 type  1   force =    -0.00192463    0.00308526   -0.00131279
     atom   24 type  1   force =     0.00190198   -0.00311675   -0.00128847

     Total force =     0.015216     Total SCF correction =     0.000116


     Computing stress (Cartesian axis) and pressure

          total   stress  (Ry/bohr**3)                   (kbar)     P=       25.57
   0.00014121   0.00000000   0.00000000           20.77        0.00        0.00
   0.00000000   0.00018393   0.00000002            0.00       27.06        0.00
   0.00000000   0.00000002   0.00019626            0.00        0.00       28.87

     Energy error            =      3.7E-04 Ry
     Gradient error          =      4.1E-03 Ry/Bohr

     number of scf cycles    =   6
     number of bfgs steps    =   5

     energy             old  =    -278.6914766304 Ry
     energy             new  =    -278.6918457890 Ry

     CASE: energy            _new < energy            _old

     new trust radius        =       0.0066009887 bohr
     new conv_thr            =       0.0000000037 Ry


ATOMIC_POSITIONS (crystal)
O                0.0000000000        0.6652431972        0.0590571063
O                0.0000000000        0.3347581714        0.5590590297
O                0.5000000000        0.1652431955        0.0590571175
O                0.5000000000        0.8347581645        0.5590590151
O                0.5000000000        0.8334324371        0.9337359910
O                0.5000000000        0.1665842767        0.4336826354
O                0.0000000000        0.3334324361        0.9337360067
O                0.0000000000        0.6665842793        0.4336826256
H                0.0000000000        0.6643690128        0.2015244339
H                0.0000000000        0.3356337277        0.7015261168
H                0.5000000000        0.1643690100        0.2015244440
H                0.5000000000        0.8356337202        0.7015261038
H                0.0000000000        0.5373460645        0.0162941009
H                0.0000000000        0.4626529898        0.5162893126
H                0.5000000000        0.0373460639        0.0162941067
H                0.5000000000        0.9626529830        0.5162893038
H                0.6869506178        0.7694116632        0.9837077398
H                0.3130550691        0.2305784064        0.4837079122
H                0.6869449309        0.2305784064        0.4837079122
H                0.3130493822        0.7694116632        0.9837077398
H                0.1869506192        0.2694116596        0.9837077501
H                0.8130550689        0.7305784060        0.4837079061
H                0.1869449311        0.7305784060        0.4837079061
H                0.8130493808        0.2694116596        0.9837077501



     Writing config-only to output data dir ./iceIh_vdw/iceIh_vdw.save/ :
     XML data file
     NEW-OLD atomic charge density approx. for the potential

     total cpu time spent up to now is      633.1 secs

     per-process dynamical memory:    56.1 Mb

     Self-consistent Calculation

     iteration #  1     ecut=    90.00 Ry     beta= 0.70
     Davidson diagonalization with overlap
     ethr =  1.00E-06,  avg # of iterations =  3.0

     Threshold (ethr) on eigenvalues was too large:
     Diagonalizing with lowered threshold

     Davidson diagonalization with overlap
     ethr =  4.50E-08,  avg # of iterations =  2.0

     total cpu time spent up to now is      651.4 secs

     total energy              =    -278.69216261 Ry
     estimated scf accuracy    <       0.00003293 Ry

     iteration #  2     ecut=    90.00 Ry     beta= 0.70
     Davidson diagonalization with overlap
     ethr =  5.15E-08,  avg # of iterations =  2.0

     total cpu time spent up to now is      659.5 secs

     total energy              =    -278.69216706 Ry
     estimated scf accuracy    <       0.00000127 Ry

     iteration #  3     ecut=    90.00 Ry     beta= 0.70
     Davidson diagonalization with overlap
     ethr =  1.99E-09,  avg # of iterations =  3.0

     total cpu time spent up to now is      669.2 secs

     total energy              =    -278.69216737 Ry
     estimated scf accuracy    <       0.00000027 Ry

     iteration #  4     ecut=    90.00 Ry     beta= 0.70
     Davidson diagonalization with overlap
     ethr =  4.24E-10,  avg # of iterations =  3.1

     total cpu time spent up to now is      679.1 secs

     total energy              =    -278.69216744 Ry
     estimated scf accuracy    <       0.00000006 Ry

     iteration #  5     ecut=    90.00 Ry     beta= 0.70
     Davidson diagonalization with overlap
     ethr =  9.20E-11,  avg # of iterations =  2.3

     total cpu time spent up to now is      688.0 secs

     End of self-consistent calculation

     Number of k-points >= 100: set verbosity='high' to print the bands.

     highest occupied level (ev):    -3.2126

!    total energy              =    -278.69216745 Ry
     estimated scf accuracy    <          2.5E-09 Ry

     The total energy is the sum of the following terms:
     one-electron contribution =    -224.89041967 Ry
     hartree contribution      =     134.65102563 Ry
     xc contribution           =     -70.78832222 Ry
     ewald contribution        =    -117.66445118 Ry

     convergence has been achieved in   5 iterations

     Forces acting on atoms (cartesian axes, Ry/au):

     atom    1 type  2   force =     0.00000000    0.00114981    0.00010067
     atom    2 type  2   force =     0.00000000   -0.00113400    0.00009107
     atom    3 type  2   force =     0.00000000    0.00114979    0.00010065
     atom    4 type  2   force =     0.00000000   -0.00113401    0.00009110
     atom    5 type  2   force =     0.00000000   -0.00023214    0.00334393
     atom    6 type  2   force =     0.00000000    0.00027005    0.00321928
     atom    7 type  2   force =     0.00000000   -0.00023215    0.00334392
     atom    8 type  2   force =     0.00000000    0.00027004    0.00321928
     atom    9 type  1   force =     0.00000000    0.00014866   -0.00000499
     atom   10 type  1   force =     0.00000000   -0.00013659    0.00001611
     atom   11 type  1   force =     0.00000000    0.00014866   -0.00000498
     atom   12 type  1   force =     0.00000000   -0.00013660    0.00001610
     atom   13 type  1   force =     0.00000000    0.00184836   -0.00126320
     atom   14 type  1   force =     0.00000000   -0.00187840   -0.00128398
     atom   15 type  1   force =     0.00000000    0.00184837   -0.00126320
     atom   16 type  1   force =     0.00000000   -0.00187839   -0.00128399
     atom   17 type  1   force =    -0.00119978   -0.00232784   -0.00103857
     atom   18 type  1   force =     0.00121178    0.00230997   -0.00107087
     atom   19 type  1   force =    -0.00121178    0.00230997   -0.00107087
     atom   20 type  1   force =     0.00119978   -0.00232784   -0.00103857
     atom   21 type  1   force =    -0.00119979   -0.00232784   -0.00103857
     atom   22 type  1   force =     0.00121178    0.00230997   -0.00107088
     atom   23 type  1   force =    -0.00121178    0.00230997   -0.00107088
     atom   24 type  1   force =     0.00119979   -0.00232784   -0.00103857

     Total force =     0.011516     Total SCF correction =     0.000175


     Computing stress (Cartesian axis) and pressure

          total   stress  (Ry/bohr**3)                   (kbar)     P=       25.65
   0.00014669   0.00000000   0.00000000           21.58        0.00        0.00
   0.00000000   0.00018391   0.00000007            0.00       27.05        0.01
   0.00000000   0.00000007   0.00019248            0.00        0.01       28.31

     Energy error            =      3.2E-04 Ry
     Gradient error          =      3.3E-03 Ry/Bohr

     number of scf cycles    =   7
     number of bfgs steps    =   6

     energy             old  =    -278.6918457890 Ry
     energy             new  =    -278.6921674456 Ry

     CASE: energy            _new < energy            _old

     new trust radius        =       0.0099014831 bohr
     new conv_thr            =       0.0000000032 Ry


ATOMIC_POSITIONS (crystal)
O                0.0000000000        0.6654939363        0.0590886170
O                0.0000000000        0.3345082224        0.5590889420
O                0.5000000000        0.1654939329        0.0590886263
O                0.5000000000        0.8345082147        0.5590889305
O                0.5000000000        0.8336597190        0.9344343883
O                0.5000000000        0.1663669756        0.4343485294
O                0.0000000000        0.3336597168        0.9344344018
O                0.0000000000        0.6663669760        0.4343485203
H                0.0000000000        0.6644437593        0.2015904809
H                0.0000000000        0.3355608313        0.7015926183
H                0.5000000000        0.1644437560        0.2015904917
H                0.5000000000        0.8355608233        0.7015926049
H                0.0000000000        0.5377240227        0.0159144718
H                0.0000000000        0.4622711996        0.5159051493
H                0.5000000000        0.0377240226        0.0159144776
H                0.5000000000        0.9622711947        0.5159051395
H                0.6865711158        0.7687737508        0.9835117245
H                0.3134393658        0.2312119251        0.4835066926
H                0.6865606342        0.2312119251        0.4835066926
H                0.3134288842        0.7687737508        0.9835117245
H                0.1865711154        0.2687737477        0.9835117358
H                0.8134393653        0.7312119248        0.4835066852
H                0.1865606347        0.7312119248        0.4835066852
H                0.8134288846        0.2687737477        0.9835117358



     Writing config-only to output data dir ./iceIh_vdw/iceIh_vdw.save/ :
     XML data file
     NEW-OLD atomic charge density approx. for the potential

     total cpu time spent up to now is      696.9 secs

     per-process dynamical memory:    55.6 Mb

     Self-consistent Calculation

     iteration #  1     ecut=    90.00 Ry     beta= 0.70
     Davidson diagonalization with overlap
     ethr =  1.00E-06,  avg # of iterations =  3.4

     total cpu time spent up to now is      709.3 secs

     total energy              =    -278.69246697 Ry
     estimated scf accuracy    <       0.00007288 Ry

     iteration #  2     ecut=    90.00 Ry     beta= 0.70
     Davidson diagonalization with overlap
     ethr =  1.14E-07,  avg # of iterations =  2.0

     total cpu time spent up to now is      718.0 secs

     total energy              =    -278.69247783 Ry
     estimated scf accuracy    <       0.00000874 Ry

     iteration #  3     ecut=    90.00 Ry     beta= 0.70
     Davidson diagonalization with overlap
     ethr =  1.37E-08,  avg # of iterations =  3.0

     total cpu time spent up to now is      728.3 secs

     total energy              =    -278.69248011 Ry
     estimated scf accuracy    <       0.00000313 Ry

     iteration #  4     ecut=    90.00 Ry     beta= 0.70
     Davidson diagonalization with overlap
     ethr =  4.89E-09,  avg # of iterations =  2.4

     total cpu time spent up to now is      736.8 secs

     total energy              =    -278.69248067 Ry
     estimated scf accuracy    <       0.00000009 Ry

     iteration #  5     ecut=    90.00 Ry     beta= 0.70
     Davidson diagonalization with overlap
     ethr =  1.38E-10,  avg # of iterations =  5.6

     total cpu time spent up to now is      750.7 secs

     total energy              =    -278.69248070 Ry
     estimated scf accuracy    <       0.00000019 Ry

     iteration #  6     ecut=    90.00 Ry     beta= 0.70
     Davidson diagonalization with overlap
     ethr =  1.38E-10,  avg # of iterations =  3.1

     total cpu time spent up to now is      761.4 secs

     End of self-consistent calculation

     Number of k-points >= 100: set verbosity='high' to print the bands.

     highest occupied level (ev):    -3.2183

!    total energy              =    -278.69248073 Ry
     estimated scf accuracy    <          1.4E-09 Ry

     The total energy is the sum of the following terms:
     one-electron contribution =    -224.91483563 Ry
     hartree contribution      =     134.66233034 Ry
     xc contribution           =     -70.79024777 Ry
     ewald contribution        =    -117.64972767 Ry

     convergence has been achieved in   6 iterations

     Forces acting on atoms (cartesian axes, Ry/au):

     atom    1 type  2   force =     0.00000000    0.00104576    0.00018156
     atom    2 type  2   force =     0.00000000   -0.00107033    0.00026715
     atom    3 type  2   force =     0.00000000    0.00104578    0.00018158
     atom    4 type  2   force =     0.00000000   -0.00107031    0.00026712
     atom    5 type  2   force =     0.00000000   -0.00114596    0.00173001
     atom    6 type  2   force =     0.00000000    0.00116270    0.00167322
     atom    7 type  2   force =     0.00000000   -0.00114595    0.00173000
     atom    8 type  2   force =     0.00000000    0.00116270    0.00167322
     atom    9 type  1   force =     0.00000000   -0.00020977   -0.00054425
     atom   10 type  1   force =     0.00000000    0.00023307   -0.00053494
     atom   11 type  1   force =     0.00000000   -0.00020977   -0.00054427
     atom   12 type  1   force =     0.00000000    0.00023307   -0.00053492
     atom   13 type  1   force =     0.00000000    0.00132032   -0.00028780
     atom   14 type  1   force =     0.00000000   -0.00131722   -0.00032160
     atom   15 type  1   force =     0.00000000    0.00132030   -0.00028781
     atom   16 type  1   force =     0.00000000   -0.00131724   -0.00032159
     atom   17 type  1   force =    -0.00007793   -0.00137590   -0.00051686
     atom   18 type  1   force =     0.00008896    0.00136662   -0.00056482
     atom   19 type  1   force =    -0.00008896    0.00136662   -0.00056482
     atom   20 type  1   force =     0.00007793   -0.00137590   -0.00051686
     atom   21 type  1   force =    -0.00007793   -0.00137591   -0.00051685
     atom   22 type  1   force =     0.00008896    0.00136662   -0.00056482
     atom   23 type  1   force =    -0.00008896    0.00136662   -0.00056482
     atom   24 type  1   force =     0.00007793   -0.00137591   -0.00051685

     Total force =     0.006909     Total SCF correction =     0.000107


     Computing stress (Cartesian axis) and pressure

          total   stress  (Ry/bohr**3)                   (kbar)     P=       25.95
   0.00015891   0.00000000   0.00000000           23.38        0.00        0.00
   0.00000000   0.00018637   0.00000006            0.00       27.42        0.01
   0.00000000   0.00000006   0.00018397            0.00        0.01       27.06

     Energy error            =      3.1E-04 Ry
     Gradient error          =      1.7E-03 Ry/Bohr

     number of scf cycles    =   8
     number of bfgs steps    =   7

     energy             old  =    -278.6921674456 Ry
     energy             new  =    -278.6924807345 Ry

     CASE: energy            _new < energy            _old

     new trust radius        =       0.0104962304 bohr
     new conv_thr            =       0.0000000017 Ry


ATOMIC_POSITIONS (crystal)
O                0.0000000000        0.6658070168        0.0591281483
O                0.0000000000        0.3341916207        0.5591395077
O                0.5000000000        0.1658070150        0.0591281600
O                0.5000000000        0.8341916162        0.5591394939
O                0.5000000000        0.8337701787        0.9351690321
O                0.5000000000        0.1662667345        0.4350498877
O                0.0000000000        0.3337701762        0.9351690427
O                0.0000000000        0.6662667339        0.4350498800
H                0.0000000000        0.6644863578        0.2015931386
H                0.0000000000        0.3355224592        0.7015956926
H                0.5000000000        0.1644863539        0.2015931472
H                0.5000000000        0.8355224510        0.7015956827
H                0.0000000000        0.5381791639        0.0155662877
H                0.0000000000        0.4618144919        0.5155489774
H                0.5000000000        0.0381791612        0.0155662923
H                0.5000000000        0.9618144852        0.5155489684
H                0.6862949837        0.7680752293        0.9833097853
H                0.3137216946        0.2319057684        0.4832948947
H                0.6862783054        0.2319057684        0.4832948947
H                0.3137050163        0.7680752293        0.9833097853
H                0.1862949829        0.2680752264        0.9833097976
H                0.8137216946        0.7319057678        0.4832948858
H                0.1862783054        0.7319057678        0.4832948858
H                0.8137050171        0.2680752264        0.9833097976



     Writing config-only to output data dir ./iceIh_vdw/iceIh_vdw.save/ :
     XML data file
     NEW-OLD atomic charge density approx. for the potential

     total cpu time spent up to now is      770.2 secs

     per-process dynamical memory:    56.0 Mb

     Self-consistent Calculation

     iteration #  1     ecut=    90.00 Ry     beta= 0.70
     Davidson diagonalization with overlap
     ethr =  1.00E-06,  avg # of iterations =  3.4

     total cpu time spent up to now is      782.7 secs

     total energy              =    -278.69259582 Ry
     estimated scf accuracy    <       0.00008245 Ry

     iteration #  2     ecut=    90.00 Ry     beta= 0.70
     Davidson diagonalization with overlap
     ethr =  1.29E-07,  avg # of iterations =  2.1

     total cpu time spent up to now is      791.6 secs

     total energy              =    -278.69260850 Ry
     estimated scf accuracy    <       0.00001447 Ry

     iteration #  3     ecut=    90.00 Ry     beta= 0.70
     Davidson diagonalization with overlap
     ethr =  2.26E-08,  avg # of iterations =  3.0

     total cpu time spent up to now is      801.9 secs

     total energy              =    -278.69261233 Ry
     estimated scf accuracy    <       0.00000387 Ry

     iteration #  4     ecut=    90.00 Ry     beta= 0.70
     Davidson diagonalization with overlap
     ethr =  6.05E-09,  avg # of iterations =  2.3

     total cpu time spent up to now is      810.2 secs

     total energy              =    -278.69261294 Ry
     estimated scf accuracy    <       0.00000013 Ry

     iteration #  5     ecut=    90.00 Ry     beta= 0.70
     Davidson diagonalization with overlap
     ethr =  1.96E-10,  avg # of iterations =  5.0

     total cpu time spent up to now is      823.5 secs

     total energy              =    -278.69261299 Ry
     estimated scf accuracy    <       0.00000021 Ry

     iteration #  6     ecut=    90.00 Ry     beta= 0.70
     Davidson diagonalization with overlap
     ethr =  1.96E-10,  avg # of iterations =  3.0

     total cpu time spent up to now is      833.8 secs

     total energy              =    -278.69261303 Ry
     estimated scf accuracy    <          2.3E-09 Ry

     iteration #  7     ecut=    90.00 Ry     beta= 0.70
     Davidson diagonalization with overlap
     ethr =  3.66E-12,  avg # of iterations =  5.9

     total cpu time spent up to now is      848.7 secs

     total energy              =    -278.69261303 Ry
     estimated scf accuracy    <       0.00000001 Ry

     iteration #  8     ecut=    90.00 Ry     beta= 0.70
     Davidson diagonalization with overlap
     ethr =  3.66E-12,  avg # of iterations =  3.7

     total cpu time spent up to now is      859.6 secs

     End of self-consistent calculation

     Number of k-points >= 100: set verbosity='high' to print the bands.

     highest occupied level (ev):    -3.2251

!    total energy              =    -278.69261303 Ry
     estimated scf accuracy    <          5.0E-10 Ry

     The total energy is the sum of the following terms:
     one-electron contribution =    -224.94591077 Ry
     hartree contribution      =     134.67606724 Ry
     xc contribution           =     -70.79292022 Ry
     ewald contribution        =    -117.62984928 Ry

     convergence has been achieved in   8 iterations

     Forces acting on atoms (cartesian axes, Ry/au):

     atom    1 type  2   force =     0.00000000    0.00066636   -0.00026801
     atom    2 type  2   force =     0.00000000   -0.00062243   -0.00029039
     atom    3 type  2   force =     0.00000000    0.00066632   -0.00026805
     atom    4 type  2   force =     0.00000000   -0.00062247   -0.00029034
     atom    5 type  2   force =     0.00000000   -0.00183007    0.00009771
     atom    6 type  2   force =     0.00000000    0.00180519    0.00008092
     atom    7 type  2   force =     0.00000000   -0.00183007    0.00009772
     atom    8 type  2   force =     0.00000000    0.00180518    0.00008091
     atom    9 type  1   force =     0.00000000   -0.00039186   -0.00033028
     atom   10 type  1   force =     0.00000000    0.00042722   -0.00021541
     atom   11 type  1   force =     0.00000000   -0.00039186   -0.00033025
     atom   12 type  1   force =     0.00000000    0.00042722   -0.00021544
     atom   13 type  1   force =     0.00000000    0.00058900    0.00050103
     atom   14 type  1   force =     0.00000000   -0.00066138    0.00050016
     atom   15 type  1   force =     0.00000000    0.00058903    0.00050104
     atom   16 type  1   force =     0.00000000   -0.00066135    0.00050015
     atom   17 type  1   force =     0.00068474   -0.00037057    0.00000246
     atom   18 type  1   force =    -0.00069834    0.00037956   -0.00004032
     atom   19 type  1   force =     0.00069834    0.00037956   -0.00004032
     atom   20 type  1   force =    -0.00068474   -0.00037057    0.00000246
     atom   21 type  1   force =     0.00068474   -0.00037056    0.00000246
     atom   22 type  1   force =    -0.00069834    0.00037956   -0.00004032
     atom   23 type  1   force =     0.00069834    0.00037956   -0.00004032
     atom   24 type  1   force =    -0.00068474   -0.00037056    0.00000246

     Total force =     0.004872     Total SCF correction =     0.000036


     Computing stress (Cartesian axis) and pressure

          total   stress  (Ry/bohr**3)                   (kbar)     P=       26.28
   0.00017040   0.00000000   0.00000000           25.07        0.00        0.00
   0.00000000   0.00018721   0.00000018            0.00       27.54        0.03
   0.00000000   0.00000018   0.00017832            0.00        0.03       26.23

     Energy error            =      1.3E-04 Ry
     Gradient error          =      1.8E-03 Ry/Bohr

     number of scf cycles    =   9
     number of bfgs steps    =   8

     energy             old  =    -278.6924807345 Ry
     energy             new  =    -278.6926130326 Ry

     CASE: energy            _new < energy            _old

     new trust radius        =       0.0021667149 bohr
     new conv_thr            =       0.0000000013 Ry


ATOMIC_POSITIONS (crystal)
O                0.0000000000        0.6658978265        0.0591057537
O                0.0000000000        0.3341039924        0.5591159194
O                0.5000000000        0.1658978222        0.0591057619
O                0.5000000000        0.8341039852        0.5591159096
O                0.5000000000        0.8336607798        0.9352828558
O                0.5000000000        0.1663758315        0.4351572138
O                0.0000000000        0.3336607765        0.9352828668
O                0.0000000000        0.6663758300        0.4351572055
H                0.0000000000        0.6644662555        0.2015770088
H                0.0000000000        0.3355457947        0.7015892366
H                0.5000000000        0.1644662514        0.2015770195
H                0.5000000000        0.8355457869        0.7015892241
H                0.0000000000        0.5382906527        0.0155511713
H                0.0000000000        0.4616969503        0.5155328817
H                0.5000000000        0.0382906521        0.0155511767
H                0.5000000000        0.9616969463        0.5155328723
H                0.6863387080        0.7679407933        0.9832817720
H                0.3136769937        0.2320401747        0.4832622236
H                0.6863230063        0.2320401747        0.4832622236
H                0.3136612920        0.7679407933        0.9832817720
H                0.1863387067        0.2679407908        0.9832817842
H                0.8136769931        0.7320401742        0.4832622146
H                0.1863230069        0.7320401742        0.4832622146
H                0.8136612933        0.2679407908        0.9832817842



     Writing config-only to output data dir ./iceIh_vdw/iceIh_vdw.save/ :
     XML data file
     NEW-OLD atomic charge density approx. for the potential

     total cpu time spent up to now is      868.4 secs

     per-process dynamical memory:    55.5 Mb

     Self-consistent Calculation

     iteration #  1     ecut=    90.00 Ry     beta= 0.70
     Davidson diagonalization with overlap
     ethr =  1.00E-06,  avg # of iterations =  2.0

[...]
     atom   22 type  1   force =    -0.00066774    0.00036718    0.00009821
     atom   23 type  1   force =     0.00066774    0.00036718    0.00009821
     atom   24 type  1   force =    -0.00066900   -0.00036503    0.00014505

     Total force =     0.004003     Total SCF correction =     0.000021


     Computing stress (Cartesian axis) and pressure

          total   stress  (Ry/bohr**3)                   (kbar)     P=       26.37
   0.00017321   0.00000000   0.00000000           25.48        0.00        0.00
   0.00000000   0.00018778   0.00000010            0.00       27.62        0.01
   0.00000000   0.00000010   0.00017678            0.00        0.01       26.00

     Energy error            =      2.3E-05 Ry
     Gradient error          =      1.4E-03 Ry/Bohr

     number of scf cycles    =  10
     number of bfgs steps    =   9

     energy             old  =    -278.6926130326 Ry
     energy             new  =    -278.6926360637 Ry

     CASE: energy            _new < energy            _old

     new trust radius        =       0.0023833864 bohr
     new conv_thr            =       0.0000000010 Ry


ATOMIC_POSITIONS (crystal)
O                0.0000000000        0.6659757466        0.0590868516
O                0.0000000000        0.3340230800        0.5591079582
O                0.5000000000        0.1659757439        0.0590868620
O                0.5000000000        0.8340230748        0.5591079460
O                0.5000000000        0.8334976706        0.9353270007
O                0.5000000000        0.1665389697        0.4351978580
O                0.0000000000        0.3334976678        0.9353270115
O                0.0000000000        0.6665389685        0.4351978497
H                0.0000000000        0.6644416997        0.2015493109
H                0.0000000000        0.3355750392        0.7015660930
H                0.5000000000        0.1644416954        0.2015493201
H                0.5000000000        0.8355750320        0.7015660822
H                0.0000000000        0.5383873048        0.0155674990
H                0.0000000000        0.4615987205        0.5155463169
H                0.5000000000        0.0383873026        0.0155675038
H                0.5000000000        0.9615987151        0.5155463087
H                0.6864397453        0.7678252288        0.9832758634
H                0.3135760878        0.2321556650        0.4832497087
H                0.6864239122        0.2321556650        0.4832497087
H                0.3135602547        0.7678252288        0.9832758634
H                0.1864397450        0.2678252263        0.9832758755
H                0.8135760877        0.7321556642        0.4832496993
H                0.1864239123        0.7321556642        0.4832496993
H                0.8135602550        0.2678252263        0.9832758755



     Writing config-only to output data dir ./iceIh_vdw/iceIh_vdw.save/ :
     XML data file
     NEW-OLD atomic charge density approx. for the potential

     total cpu time spent up to now is      943.1 secs

     per-process dynamical memory:    55.5 Mb

     Self-consistent Calculation

     iteration #  1     ecut=    90.00 Ry     beta= 0.70
     Davidson diagonalization with overlap
     ethr =  1.00E-06,  avg # of iterations =  2.0

     Threshold (ethr) on eigenvalues was too large:
     Diagonalizing with lowered threshold

     Davidson diagonalization with overlap
     ethr =  6.49E-09,  avg # of iterations =  3.0

     total cpu time spent up to now is      962.1 secs

     total energy              =    -278.69265649 Ry
     estimated scf accuracy    <       0.00000509 Ry

     iteration #  2     ecut=    90.00 Ry     beta= 0.70
     Davidson diagonalization with overlap
     ethr =  7.95E-09,  avg # of iterations =  3.0

     total cpu time spent up to now is      972.4 secs

     total energy              =    -278.69265726 Ry
     estimated scf accuracy    <       0.00000252 Ry

     iteration #  3     ecut=    90.00 Ry     beta= 0.70
     Davidson diagonalization with overlap
     ethr =  3.94E-09,  avg # of iterations =  3.0

     total cpu time spent up to now is      982.2 secs

     total energy              =    -278.69265792 Ry
     estimated scf accuracy    <       0.00000009 Ry

     iteration #  4     ecut=    90.00 Ry     beta= 0.70
     Davidson diagonalization with overlap
     ethr =  1.43E-10,  avg # of iterations =  2.7

     total cpu time spent up to now is      991.0 secs

     total energy              =    -278.69265792 Ry
     estimated scf accuracy    <       0.00000004 Ry

     iteration #  5     ecut=    90.00 Ry     beta= 0.70
     Davidson diagonalization with overlap
     ethr =  5.57E-11,  avg # of iterations =  3.3

     total cpu time spent up to now is     1002.0 secs

     total energy              =    -278.69265793 Ry
     estimated scf accuracy    <          9.5E-09 Ry

     iteration #  6     ecut=    90.00 Ry     beta= 0.70
     Davidson diagonalization with overlap
     ethr =  1.48E-11,  avg # of iterations =  2.3

     total cpu time spent up to now is     1010.3 secs

     End of self-consistent calculation

     Number of k-points >= 100: set verbosity='high' to print the bands.

     highest occupied level (ev):    -3.2279

!    total energy              =    -278.69265793 Ry
     estimated scf accuracy    <          3.9E-10 Ry

     The total energy is the sum of the following terms:
     one-electron contribution =    -224.95596616 Ry
     hartree contribution      =     134.68061755 Ry
     xc contribution           =     -70.79404543 Ry
     ewald contribution        =    -117.62326390 Ry

     convergence has been achieved in   6 iterations

     Forces acting on atoms (cartesian axes, Ry/au):

     atom    1 type  2   force =     0.00000000    0.00013452    0.00001544
     atom    2 type  2   force =     0.00000000   -0.00012091    0.00002966
     atom    3 type  2   force =     0.00000000    0.00013450    0.00001542
     atom    4 type  2   force =     0.00000000   -0.00012093    0.00002967
     atom    5 type  2   force =     0.00000000   -0.00107495   -0.00052626
     atom    6 type  2   force =     0.00000000    0.00105670   -0.00054361
     atom    7 type  2   force =     0.00000000   -0.00107496   -0.00052626
     atom    8 type  2   force =     0.00000000    0.00105669   -0.00054361
     atom    9 type  1   force =     0.00000000   -0.00003171   -0.00007775
     atom   10 type  1   force =     0.00000000    0.00006645   -0.00001025
     atom   11 type  1   force =     0.00000000   -0.00003171   -0.00007774
     atom   12 type  1   force =     0.00000000    0.00006645   -0.00001027
     atom   13 type  1   force =     0.00000000    0.00006972    0.00021284
     atom   14 type  1   force =     0.00000000   -0.00011172    0.00021678
     atom   15 type  1   force =     0.00000000    0.00006973    0.00021285
     atom   16 type  1   force =     0.00000000   -0.00011170    0.00021678
     atom   17 type  1   force =     0.00041064   -0.00035207    0.00018690
     atom   18 type  1   force =    -0.00041721    0.00035803    0.00015468
     atom   19 type  1   force =     0.00041721    0.00035803    0.00015468
     atom   20 type  1   force =    -0.00041064   -0.00035207    0.00018690
     atom   21 type  1   force =     0.00041064   -0.00035207    0.00018689
     atom   22 type  1   force =    -0.00041721    0.00035803    0.00015468
     atom   23 type  1   force =     0.00041721    0.00035803    0.00015468
     atom   24 type  1   force =    -0.00041064   -0.00035207    0.00018689

     Total force =     0.002935     Total SCF correction =     0.000023


     Computing stress (Cartesian axis) and pressure

          total   stress  (Ry/bohr**3)                   (kbar)     P=       26.40
   0.00017425   0.00000000   0.00000000           25.63        0.00        0.00
   0.00000000   0.00018725   0.00000017            0.00       27.54        0.02
   0.00000000   0.00000017   0.00017697            0.00        0.02       26.03

     Energy error            =      2.2E-05 Ry
     Gradient error          =      1.1E-03 Ry/Bohr

     number of scf cycles    =  11
     number of bfgs steps    =  10

     energy             old  =    -278.6926360637 Ry
     energy             new  =    -278.6926579339 Ry

     CASE: energy            _new < energy            _old

     new trust radius        =       0.0035750795 bohr
     new conv_thr            =       0.0000000010 Ry


ATOMIC_POSITIONS (crystal)
O                0.0000000000        0.6660559219        0.0590667573
O                0.0000000000        0.3339457697        0.5590918494
O                0.5000000000        0.1660559166        0.0590667640
O                0.5000000000        0.8339457617        0.5590918414
O                0.5000000000        0.8332452877        0.9353207072
O                0.5000000000        0.1667887138        0.4351851315
O                0.0000000000        0.3332452842        0.9353207188
O                0.0000000000        0.6667887117        0.4351851222
H                0.0000000000        0.6644196576        0.2015248906
H                0.0000000000        0.3356046507        0.7015578457
H                0.5000000000        0.1644196532        0.2015249020
H                0.5000000000        0.8356046444        0.7015578323
H                0.0000000000        0.5384801295        0.0155992639
H                0.0000000000        0.4614965456        0.5155774748
H                0.5000000000        0.0384801298        0.0155992695
H                0.5000000000        0.9614965432        0.5155774665
H                0.6865812774        0.7676863586        0.9832864737
H                0.3134325099        0.2322953124        0.4832515825
H                0.6865674901        0.2322953124        0.4832515825
H                0.3134187226        0.7676863586        0.9832864737
H                0.1865812771        0.2676863567        0.9832864854
H                0.8134325091        0.7322953117        0.4832515729
H                0.1865674909        0.7322953117        0.4832515729
H                0.8134187229        0.2676863567        0.9832864854



     Writing config-only to output data dir ./iceIh_vdw/iceIh_vdw.save/ :
     XML data file
     NEW-OLD atomic charge density approx. for the potential

     total cpu time spent up to now is     1019.1 secs

     per-process dynamical memory:    55.5 Mb

     Self-consistent Calculation

     iteration #  1     ecut=    90.00 Ry     beta= 0.70
     Davidson diagonalization with overlap
     ethr =  1.00E-06,  avg # of iterations =  2.2

     Threshold (ethr) on eigenvalues was too large:
     Diagonalizing with lowered threshold

     Davidson diagonalization with overlap
     ethr =  1.14E-08,  avg # of iterations =  3.0

     total cpu time spent up to now is     1038.3 secs

     total energy              =    -278.69267466 Ry
     estimated scf accuracy    <       0.00000886 Ry

     iteration #  2     ecut=    90.00 Ry     beta= 0.70
     Davidson diagonalization with overlap
     ethr =  1.38E-08,  avg # of iterations =  3.0

     total cpu time spent up to now is     1048.4 secs

     total energy              =    -278.69267602 Ry
     estimated scf accuracy    <       0.00000370 Ry

     iteration #  3     ecut=    90.00 Ry     beta= 0.70
     Davidson diagonalization with overlap
     ethr =  5.78E-09,  avg # of iterations =  3.0

     total cpu time spent up to now is     1058.6 secs

     total energy              =    -278.69267707 Ry
     estimated scf accuracy    <       0.00000020 Ry

     iteration #  4     ecut=    90.00 Ry     beta= 0.70
     Davidson diagonalization with overlap
     ethr =  3.18E-10,  avg # of iterations =  2.0

     total cpu time spent up to now is     1066.1 secs

     total energy              =    -278.69267707 Ry
     estimated scf accuracy    <       0.00000005 Ry

     iteration #  5     ecut=    90.00 Ry     beta= 0.70
     Davidson diagonalization with overlap
     ethr =  7.22E-11,  avg # of iterations =  3.0

     total cpu time spent up to now is     1076.8 secs

     total energy              =    -278.69267709 Ry
     estimated scf accuracy    <       0.00000001 Ry

     iteration #  6     ecut=    90.00 Ry     beta= 0.70
     Davidson diagonalization with overlap
     ethr =  2.08E-11,  avg # of iterations =  2.0

     total cpu time spent up to now is     1084.7 secs

     End of self-consistent calculation

     Number of k-points >= 100: set verbosity='high' to print the bands.

     highest occupied level (ev):    -3.2289

!    total energy              =    -278.69267709 Ry
     estimated scf accuracy    <          9.2E-10 Ry

     The total energy is the sum of the following terms:
     one-electron contribution =    -224.95311407 Ry
     hartree contribution      =     134.67933325 Ry
     xc contribution           =     -70.79390562 Ry
     ewald contribution        =    -117.62499065 Ry

     convergence has been achieved in   6 iterations

     Forces acting on atoms (cartesian axes, Ry/au):

     atom    1 type  2   force =     0.00000000   -0.00028167    0.00008476
     atom    2 type  2   force =     0.00000000    0.00020170    0.00024442
     atom    3 type  2   force =     0.00000000   -0.00028162    0.00008483
     atom    4 type  2   force =     0.00000000    0.00020176    0.00024434
     atom    5 type  2   force =     0.00000000   -0.00057167   -0.00061548
     atom    6 type  2   force =     0.00000000    0.00058856   -0.00062598
     atom    7 type  2   force =     0.00000000   -0.00057165   -0.00061549
     atom    8 type  2   force =     0.00000000    0.00058858   -0.00062597
     atom    9 type  1   force =     0.00000000    0.00021260    0.00017990
     atom   10 type  1   force =     0.00000000   -0.00018360    0.00012687
     atom   11 type  1   force =     0.00000000    0.00021260    0.00017985
     atom   12 type  1   force =     0.00000000   -0.00018360    0.00012692
     atom   13 type  1   force =     0.00000000   -0.00016699   -0.00002419
     atom   14 type  1   force =     0.00000000    0.00021986   -0.00004307
     atom   15 type  1   force =     0.00000000   -0.00016704   -0.00002420
     atom   16 type  1   force =     0.00000000    0.00021981   -0.00004305
     atom   17 type  1   force =     0.00003706   -0.00036610    0.00018440
     atom   18 type  1   force =    -0.00002060    0.00035670    0.00015198
     atom   19 type  1   force =     0.00002060    0.00035670    0.00015198
     atom   20 type  1   force =    -0.00003706   -0.00036610    0.00018440
     atom   21 type  1   force =     0.00003707   -0.00036610    0.00018440
     atom   22 type  1   force =    -0.00002059    0.00035669    0.00015198
     atom   23 type  1   force =     0.00002059    0.00035669    0.00015198
     atom   24 type  1   force =    -0.00003707   -0.00036610    0.00018440

     Total force =     0.002226     Total SCF correction =     0.000032


     Computing stress (Cartesian axis) and pressure

          total   stress  (Ry/bohr**3)                   (kbar)     P=       26.37
   0.00017488   0.00000000   0.00000000           25.73        0.00        0.00
   0.00000000   0.00018604   0.00000007            0.00       27.37        0.01
   0.00000000   0.00000007   0.00017690            0.00        0.01       26.02

     Energy error            =      1.9E-05 Ry
     Gradient error          =      6.3E-04 Ry/Bohr

     bfgs converged in  12 scf cycles and  11 bfgs steps
     (criteria: energy <  1.0E-04 Ry, force <  1.0E-03 Ry/Bohr)

     End of BFGS Geometry Optimization

     Final energy             =    -278.6926770919 Ry

     File ./iceIh_vdw/iceIh_vdw.bfgs deleted, as requested
Begin final coordinates

ATOMIC_POSITIONS (crystal)
O                0.0000000000        0.6660559219        0.0590667573
O                0.0000000000        0.3339457697        0.5590918494
O                0.5000000000        0.1660559166        0.0590667640
O                0.5000000000        0.8339457617        0.5590918414
O                0.5000000000        0.8332452877        0.9353207072
O                0.5000000000        0.1667887138        0.4351851315
O                0.0000000000        0.3332452842        0.9353207188
O                0.0000000000        0.6667887117        0.4351851222
H                0.0000000000        0.6644196576        0.2015248906
H                0.0000000000        0.3356046507        0.7015578457
H                0.5000000000        0.1644196532        0.2015249020
H                0.5000000000        0.8356046444        0.7015578323
H                0.0000000000        0.5384801295        0.0155992639
H                0.0000000000        0.4614965456        0.5155774748
H                0.5000000000        0.0384801298        0.0155992695
H                0.5000000000        0.9614965432        0.5155774665
H                0.6865812774        0.7676863586        0.9832864737
H                0.3134325099        0.2322953124        0.4832515825
H                0.6865674901        0.2322953124        0.4832515825
H                0.3134187226        0.7676863586        0.9832864737
H                0.1865812771        0.2676863567        0.9832864854
H                0.8134325091        0.7322953117        0.4832515729
H                0.1865674909        0.7322953117        0.4832515729
H                0.8134187229        0.2676863567        0.9832864854
End final coordinates



     Writing all to output data dir ./iceIh_vdw/iceIh_vdw.save/ :
     XML data file, charge density, pseudopotentials, collected wavefunctions

     init_run     :      5.85s CPU      5.97s WALL (       1 calls)
     electrons    :    965.54s CPU    982.41s WALL (      12 calls)
     update_pot   :      0.68s CPU      0.77s WALL (      11 calls)
     forces       :      6.24s CPU      6.26s WALL (      12 calls)
     stress       :     94.82s CPU     94.95s WALL (      12 calls)

     Called by init_run:
     wfcinit      :      3.94s CPU      4.00s WALL (       1 calls)
     potinit      :      1.57s CPU      1.61s WALL (       1 calls)
     hinit0       :      0.26s CPU      0.27s WALL (       1 calls)

     Called by electrons:
     c_bands      :    860.05s CPU    873.96s WALL (      95 calls)
     sum_band     :     99.59s CPU    100.63s WALL (      95 calls)
     v_of_rho     :      7.54s CPU      8.23s WALL (     102 calls)
     newd         :      0.18s CPU      0.25s WALL (     102 calls)
     mix_rho      :      0.16s CPU      0.16s WALL (      95 calls)
     vdW_kernel   :      1.50s CPU      1.52s WALL (       1 calls)

     Called by c_bands:
     init_us_2    :     11.70s CPU     12.10s WALL (   24725 calls)
     cegterg      :    831.24s CPU    839.10s WALL (   10925 calls)

     Called by *egterg:
     cdiaghg      :     74.63s CPU     74.99s WALL (   42860 calls)
     h_psi        :    625.38s CPU    632.34s WALL (   44815 calls)
     s_psi        :     24.18s CPU     24.33s WALL (   44815 calls)
     g_psi        :      2.13s CPU      2.14s WALL (   33775 calls)

     Called by h_psi:
     h_psi:calbec :     39.21s CPU     39.56s WALL (   44815 calls)
     vloc_psi     :    556.34s CPU    562.65s WALL (   44815 calls)
     add_vuspsi   :     25.83s CPU     26.05s WALL (   44815 calls)

     General routines
     calbec       :     54.18s CPU     54.65s WALL (   62640 calls)
     fft          :      3.65s CPU      3.73s WALL (    6862 calls)
     ffts         :      0.05s CPU      0.05s WALL (      95 calls)
     fftw         :    582.52s CPU    588.91s WALL ( 2626544 calls)

     Parallel routines

     PWSCF        :  17m57.02s CPU  18m23.18s WALL


   This run was terminated on:  20:16: 7   1Apr2026            

=------------------------------------------------------------------------------=
   JOB DONE.
=------------------------------------------------------------------------------=
