
     Program PWSCF v.7.3.1 starts on 26Mar2026 at 16:18:31 

     This program is part of the open-source Quantum ESPRESSO suite
     for quantum simulation of materials; please cite
         "P. Giannozzi et al., J. Phys.:Condens. Matter 21 395502 (2009);
         "P. Giannozzi et al., J. Phys.:Condens. Matter 29 465901 (2017);
         "P. Giannozzi et al., J. Chem. Phys. 152 154105 (2020);
          URL http://www.quantum-espresso.org", 
     in publications or presentations arising from this work. More details at
     http://www.quantum-espresso.org/quote

     Parallel version (MPI), running on   128 processors

     MPI processes distributed on     1 nodes
     237457 MiB available memory on the printing compute node when the environment starts

     Waiting for input...
     Reading input from standard input

     Current dimensions of program PWSCF are:
     Max number of different atomic species (ntypx) = 10
     Max number of k-points (npk) =  40000
     Max angular momentum in pseudopotentials (lmaxx) =  4

     IMPORTANT: XC functional enforced from input :
     Exchange-correlation= VDW-DF2
                           (   1   4  13   0   2   0   0)
     Any further DFT definition will be discarded
     Please, verify this is what you really want

     Found identity + ( -0.5000 -0.5000 -0.0000) symmetry
     This is a supercell, fractional translations are disabled

     K-points division:     npool     =       4
     R & G space division:  proc/nbgrp/npool/nimage =      32
     Subspace diagonalization in iterative solution of the eigenvalue problem:
     a serial algorithm will be used


     Parallelization info
     --------------------
     sticks:   dense  smooth     PW     G-vecs:    dense   smooth      PW
     Min         104     104     28                 5572     5572     808
     Max         105     105     29                 5576     5576     813
     Sum        3329    3329    911               178357   178357   25909

     Using Slab Decomposition



     bravais-lattice index     =            8
     lattice parameter (alat)  =       8.1843  a.u.
     unit-cell volume          =    1545.5957 (a.u.)^3
     number of atoms/cell      =           24
     number of atomic types    =            2
     number of electrons       =        64.00
     number of Kohn-Sham states=           32
     kinetic-energy cutoff     =      90.0000  Ry
     charge density cutoff     =     360.0000  Ry
     scf convergence threshold =      1.0E-07
     mixing beta               =       0.7000
     number of iterations used =            8  plain     mixing
     Exchange-correlation= VDW-DF2
                           (   1   4  13   0   2   0   0)

     celldm(1)=   8.184260  celldm(2)=   1.732119  celldm(3)=   1.627721
     celldm(4)=   0.000000  celldm(5)=   0.000000  celldm(6)=   0.000000

     crystal axes: (cart. coord. in units of alat)
               a(1) = (   1.000000   0.000000   0.000000 )  
               a(2) = (   0.000000   1.732119   0.000000 )  
               a(3) = (   0.000000   0.000000   1.627721 )  

     reciprocal axes: (cart. coord. in units 2 pi/alat)
               b(1) = (  1.000000  0.000000  0.000000 )  
               b(2) = (  0.000000  0.577328  0.000000 )  
               b(3) = (  0.000000  0.000000  0.614356 )  


     PseudoPot. # 1 for H  read from file:
     ./H.pbe-van_ak.UPF
     MD5 check sum: 077eb6d537518a38cb46c6de387227b7
     Pseudo is Ultrasoft, Zval =  1.0
     Generated by new atomic code, or converted to UPF format
     Using radial grid of  615 points,  1 beta functions with: 
                l(1) =   0
     Q(r) pseudized with  8 coefficients,  rinner =    0.800

     PseudoPot. # 2 for O  read from file:
     ./O.pbe-van_ak.UPF
     MD5 check sum: 78c19812648e8988a0fe644b0f25305e
     Pseudo is Ultrasoft, Zval =  6.0
     Generated by new atomic code, or converted to UPF format
     Using radial grid of  737 points,  4 beta functions with: 
                l(1) =   0
                l(2) =   0
                l(3) =   1
                l(4) =   1
     Q(r) pseudized with  8 coefficients,  rinner =    0.800   0.800   0.800


     atomic species   valence    mass     pseudopotential
     H                 1.00     1.00800     H ( 1.00)
     O                 6.00    16.00000     O ( 1.00)

      2 Sym. Ops. (no inversion) found



   Cartesian axes

     site n.     atom                  positions (alat units)
         1        O      tau(   1) = (   0.0000000   1.1505053   0.0983911  )
         2        O      tau(   2) = (   0.0000000   0.5816137   0.9122516  )
         3        O      tau(   3) = (   0.5000000   0.2844458   0.0983911  )
         4        O      tau(   4) = (   0.5000000   1.4476733   0.9122516  )
         5        O      tau(   5) = (   0.5000000   1.4413210   1.5245781  )
         6        O      tau(   6) = (   0.5000000   0.2907980   0.7107175  )
         7        O      tau(   7) = (   0.0000000   0.5752615   1.5245780  )
         8        O      tau(   8) = (   0.0000000   1.1568575   0.7107175  )
         9        H      tau(   9) = (   0.0000000   1.1476935   0.3199225  )
        10        H      tau(  10) = (   0.0000000   0.5844255   1.1337830  )
        11        H      tau(  11) = (   0.5000000   0.2816340   0.3199225  )
        12        H      tau(  12) = (   0.5000000   1.4504851   1.1337830  )
        13        H      tau(  13) = (   0.0000000   0.9389577   0.0320281  )
        14        H      tau(  14) = (   0.0000000   0.7931613   0.8458886  )
        15        H      tau(  15) = (   0.5000000   0.0728982   0.0320281  )
        16        H      tau(  16) = (   0.5000000   1.6592209   0.8458886  )
        17        H      tau(  17) = (   0.6777387   1.3318248   1.5989889  )
        18        H      tau(  18) = (   0.3222613   0.4002942   0.7851284  )
        19        H      tau(  19) = (   0.6777387   0.4002942   0.7851284  )
        20        H      tau(  20) = (   0.3222613   1.3318248   1.5989889  )
        21        H      tau(  21) = (   0.1777387   0.4657653   1.5989889  )
        22        H      tau(  22) = (   0.8222613   1.2663538   0.7851284  )
        23        H      tau(  23) = (   0.1777387   1.2663538   0.7851284  )
        24        H      tau(  24) = (   0.8222613   0.4657653   1.5989889  )

     number of k points=   460

     Number of k-points >= 100: set verbosity='high' to print them.

     Dense  grid:   178357 G-vectors     FFT dimensions: (  50,  90,  81)

     Estimated max dynamical RAM per process >      46.82 MB

     Estimated total dynamical RAM >       5.73 GB

     Initial potential from superposition of free atoms

     starting charge      63.9998, renormalised to      64.0000


     %%%%%%%%%%%%%%%%%%%%%%%%%%%%%%%%%%%%%%%%%%%%%%%%%%%%%%%%%%%%%%%%%%%%%%%%
     %                                                                      %
     % You are using vdW-DF, which was implemented by the Thonhauser group. %
     % Please cite the following two papers that made this development      %
     % possible and the two reviews that describe the various versions:     %
     %                                                                      %
     %   T. Thonhauser et al., PRL 115, 136402 (2015).                      %
     %   T. Thonhauser et al., PRB 76, 125112 (2007).                       %
     %   K. Berland et al., Rep. Prog. Phys. 78, 066501 (2015).             %
     %   D.C. Langreth et al., J. Phys.: Condens. Matter 21, 084203 (2009). %
     %                                                                      %
     % If you are calculating stress with vdW-DF, please also cite:         %
     %                                                                      %
     %   R. Sabatini et al., J. Phys.: Condens. Matter 24, 424209 (2012).   %
     %                                                                      %
     %%%%%%%%%%%%%%%%%%%%%%%%%%%%%%%%%%%%%%%%%%%%%%%%%%%%%%%%%%%%%%%%%%%%%%%%

     %%%%%%%%%%%%%%%%%%%%%%%%%%%%%%%%%%%%%%%%%%%%%%%%%%%%%%%%%%%%%%%%%%%%%%%%
     %                                                                      %
     %  vdW-DF NEWS:                                                        %
     %                                                                      %
     %  * vdW-DF3 is now available. DOI: 10.1021/acs.jctc.0c00471           %
     %    use with input_dft = 'vdW-DF3-opt1' or 'vdW-DF3-opt2'             %
     %                                                                      %
     %  * Unscreened and range-separated hybrid vdW-DF-cx functionals       %
     %    DOI: 10.1063/1.4986522 and 10.1088/1361-648X/ac2ad2               %
     %    use with input_dft = 'vdW-DF-cx0'    and 'vdW-DF-ahcx'            %
     %  * Unscreened and range-separated hybrid vdW-DF2-b86r functionals    %
     %    DOI: 10.1063/1.4986522 and DOI: 10.1103/PhysRevX.12.041003        %
     %    use with input_dft = 'vdW-DF2-br0' and 'vdW-DF2-ahbr'             %
     %                                                                      %
     %%%%%%%%%%%%%%%%%%%%%%%%%%%%%%%%%%%%%%%%%%%%%%%%%%%%%%%%%%%%%%%%%%%%%%%%


     Starting wfcs are   48 randomized atomic wfcs

     total cpu time spent up to now is        6.2 secs

     per-process dynamical memory:    54.2 Mb

     Self-consistent Calculation

     iteration #  1     ecut=    90.00 Ry     beta= 0.70
     Davidson diagonalization with overlap
     ethr =  1.00E-02,  avg # of iterations =  2.0

     total cpu time spent up to now is       14.8 secs

     total energy              =    -277.20242769 Ry
     estimated scf accuracy    <       3.37727816 Ry

     iteration #  2     ecut=    90.00 Ry     beta= 0.70
     Davidson diagonalization with overlap
     ethr =  5.28E-03,  avg # of iterations =  3.0

     total cpu time spent up to now is       26.3 secs

     total energy              =    -278.29829316 Ry
     estimated scf accuracy    <       2.05272714 Ry

     iteration #  3     ecut=    90.00 Ry     beta= 0.70
     Davidson diagonalization with overlap
     ethr =  3.21E-03,  avg # of iterations =  2.0

     total cpu time spent up to now is       35.2 secs

     total energy              =    -278.59035836 Ry
     estimated scf accuracy    <       0.07500618 Ry

     iteration #  4     ecut=    90.00 Ry     beta= 0.70
     Davidson diagonalization with overlap
     ethr =  1.17E-04,  avg # of iterations =  4.0

     total cpu time spent up to now is       48.4 secs

     total energy              =    -278.64792441 Ry
     estimated scf accuracy    <       0.10064690 Ry

     iteration #  5     ecut=    90.00 Ry     beta= 0.70
     Davidson diagonalization with overlap
     ethr =  1.17E-04,  avg # of iterations =  2.0

     total cpu time spent up to now is       56.3 secs

     total energy              =    -278.64886002 Ry
     estimated scf accuracy    <       0.01360703 Ry

     iteration #  6     ecut=    90.00 Ry     beta= 0.70
     Davidson diagonalization with overlap
     ethr =  2.13E-05,  avg # of iterations =  2.1

     total cpu time spent up to now is       65.8 secs

     total energy              =    -278.65405007 Ry
     estimated scf accuracy    <       0.00016734 Ry

     iteration #  7     ecut=    90.00 Ry     beta= 0.70
     Davidson diagonalization with overlap
     ethr =  2.61E-07,  avg # of iterations =  5.8

     total cpu time spent up to now is       81.0 secs

     total energy              =    -278.65424933 Ry
     estimated scf accuracy    <       0.00292587 Ry

     iteration #  8     ecut=    90.00 Ry     beta= 0.70
     Davidson diagonalization with overlap
     ethr =  2.61E-07,  avg # of iterations =  2.0

     total cpu time spent up to now is       90.2 secs

     total energy              =    -278.65357876 Ry
     estimated scf accuracy    <       0.00177736 Ry

     iteration #  9     ecut=    90.00 Ry     beta= 0.70
     Davidson diagonalization with overlap
     ethr =  2.61E-07,  avg # of iterations =  4.0

     total cpu time spent up to now is      103.2 secs

     total energy              =    -278.65378856 Ry
     estimated scf accuracy    <       0.00009512 Ry

     iteration # 10     ecut=    90.00 Ry     beta= 0.70
     Davidson diagonalization with overlap
     ethr =  1.49E-07,  avg # of iterations =  2.0

     total cpu time spent up to now is      111.8 secs

     total energy              =    -278.65379435 Ry
     estimated scf accuracy    <       0.00002060 Ry

     iteration # 11     ecut=    90.00 Ry     beta= 0.70
     Davidson diagonalization with overlap
     ethr =  3.22E-08,  avg # of iterations =  2.0

     total cpu time spent up to now is      120.4 secs

     total energy              =    -278.65379622 Ry
     estimated scf accuracy    <       0.00000282 Ry

     iteration # 12     ecut=    90.00 Ry     beta= 0.70
     Davidson diagonalization with overlap
     ethr =  4.41E-09,  avg # of iterations =  4.0

     total cpu time spent up to now is      132.7 secs

     total energy              =    -278.65379787 Ry
     estimated scf accuracy    <       0.00000152 Ry

     iteration # 13     ecut=    90.00 Ry     beta= 0.70
     Davidson diagonalization with overlap
     ethr =  2.38E-09,  avg # of iterations =  2.0

     total cpu time spent up to now is      141.4 secs

     End of self-consistent calculation

     Number of k-points >= 100: set verbosity='high' to print the bands.

     highest occupied level (ev):    -3.3975

!    total energy              =    -278.65379806 Ry
     estimated scf accuracy    <       0.00000007 Ry

     The total energy is the sum of the following terms:
     one-electron contribution =    -230.35285062 Ry
     hartree contribution      =     137.05981019 Ry
     xc contribution           =     -71.29337974 Ry
     ewald contribution        =    -114.06737788 Ry

     convergence has been achieved in  13 iterations

     Forces acting on atoms (cartesian axes, Ry/au):

     atom    1 type  2   force =     0.00000000    0.05729952   -0.04200620
     atom    2 type  2   force =     0.00000000   -0.05731241   -0.04185646
     atom    3 type  2   force =     0.00000000    0.05729959   -0.04200622
     atom    4 type  2   force =     0.00000000   -0.05731204   -0.04185634
     atom    5 type  2   force =     0.00000000    0.05744747   -0.04043960
     atom    6 type  2   force =     0.00000000   -0.05743620   -0.04051986
     atom    7 type  2   force =     0.00000000    0.05744751   -0.04043970
     atom    8 type  2   force =     0.00000000   -0.05743599   -0.04051973
     atom    9 type  1   force =     0.00000000    0.00291801    0.06508114
     atom   10 type  1   force =     0.00000000   -0.00292270    0.06517450
     atom   11 type  1   force =     0.00000000    0.00291798    0.06508121
     atom   12 type  1   force =     0.00000000   -0.00292271    0.06517453
     atom   13 type  1   force =     0.00000000   -0.06028058   -0.02296836
     atom   14 type  1   force =     0.00000000    0.06027809   -0.02297965
     atom   15 type  1   force =     0.00000000   -0.06028081   -0.02296841
     atom   16 type  1   force =     0.00000000    0.06027795   -0.02297963
     atom   17 type  1   force =     0.05434520   -0.02979743    0.02011669
     atom   18 type  1   force =    -0.05432833    0.02980171    0.02014048
     atom   19 type  1   force =     0.05432833    0.02980171    0.02014048
     atom   20 type  1   force =    -0.05434520   -0.02979743    0.02011669
     atom   21 type  1   force =     0.05434515   -0.02979744    0.02011668
     atom   22 type  1   force =    -0.05432849    0.02980182    0.02014055
     atom   23 type  1   force =     0.05432849    0.02980182    0.02014055
     atom   24 type  1   force =    -0.05434515   -0.02979744    0.02011668

     Total force =     0.327922     Total SCF correction =     0.000179


     Computing stress (Cartesian axis) and pressure

          total   stress  (Ry/bohr**3)                   (kbar)     P=       92.41
   0.00061735   0.00000000   0.00000000           90.82        0.00        0.00
   0.00000000   0.00064687   0.00000001            0.00       95.16        0.00
   0.00000000   0.00000001   0.00062040            0.00        0.00       91.26


     Writing all to output data dir ./iceIh/iceIh.save/ :
     XML data file, charge density, pseudopotentials, collected wavefunctions

     init_run     :      5.83s CPU      5.94s WALL (       1 calls)
     electrons    :    133.35s CPU    135.33s WALL (       1 calls)
     forces       :      0.52s CPU      0.53s WALL (       1 calls)
     stress       :      7.96s CPU      7.98s WALL (       1 calls)

     Called by init_run:
     wfcinit      :      3.93s CPU      3.97s WALL (       1 calls)
     potinit      :      1.58s CPU      1.62s WALL (       1 calls)
     hinit0       :      0.25s CPU      0.25s WALL (       1 calls)

     Called by electrons:
     c_bands      :    118.66s CPU    120.37s WALL (      13 calls)
     sum_band     :     13.79s CPU     13.93s WALL (      13 calls)
     v_of_rho     :      2.36s CPU      2.47s WALL (      14 calls)
     newd         :      0.03s CPU      0.04s WALL (      14 calls)
     mix_rho      :      0.03s CPU      0.03s WALL (      13 calls)
     vdW_kernel   :      1.51s CPU      1.52s WALL (       1 calls)

     Called by c_bands:
     init_us_2    :      1.59s CPU      1.64s WALL (    3335 calls)
     cegterg      :    114.69s CPU    115.78s WALL (    1495 calls)

     Called by *egterg:
     cdiaghg      :     10.02s CPU     10.07s WALL (    5757 calls)
     h_psi        :     89.85s CPU     90.85s WALL (    5872 calls)
     s_psi        :      3.40s CPU      3.42s WALL (    5872 calls)
     g_psi        :      0.31s CPU      0.31s WALL (    4262 calls)

     Called by h_psi:
     h_psi:calbec :      5.43s CPU      5.47s WALL (    5872 calls)
     vloc_psi     :     80.23s CPU     81.14s WALL (    5872 calls)
     add_vuspsi   :      3.62s CPU      3.65s WALL (    5872 calls)

     General routines
     calbec       :      7.13s CPU      7.20s WALL (    7942 calls)
     fft          :      0.68s CPU      0.71s WALL (     906 calls)
     ffts         :      0.01s CPU      0.01s WALL (      13 calls)
     fftw         :     83.68s CPU     84.60s WALL (  371192 calls)

     Parallel routines

     PWSCF        :   2m30.21s CPU   2m37.40s WALL


   This run was terminated on:  16:21: 8  26Mar2026            

=------------------------------------------------------------------------------=
   JOB DONE.
=------------------------------------------------------------------------------=
