
     Program PWSCF v.7.3.1 starts on 26Mar2026 at 16:21:10 

     This program is part of the open-source Quantum ESPRESSO suite
     for quantum simulation of materials; please cite
         "P. Giannozzi et al., J. Phys.:Condens. Matter 21 395502 (2009);
         "P. Giannozzi et al., J. Phys.:Condens. Matter 29 465901 (2017);
         "P. Giannozzi et al., J. Chem. Phys. 152 154105 (2020);
          URL http://www.quantum-espresso.org", 
     in publications or presentations arising from this work. More details at
     http://www.quantum-espresso.org/quote

     Parallel version (MPI), running on   128 processors

     MPI processes distributed on     1 nodes
     237459 MiB available memory on the printing compute node when the environment starts

     Waiting for input...
     Reading input from standard input

     Current dimensions of program PWSCF are:
     Max number of different atomic species (ntypx) = 10
     Max number of k-points (npk) =  40000
     Max angular momentum in pseudopotentials (lmaxx) =  4

     IMPORTANT: XC functional enforced from input :
     Exchange-correlation= VDW-DF2
                           (   1   4  13   0   2   0   0)
     Any further DFT definition will be discarded
     Please, verify this is what you really want

     Found identity + ( -0.5000 -0.5000 -0.0000) symmetry
     This is a supercell, fractional translations are disabled

     K-points division:     npool     =       4
     R & G space division:  proc/nbgrp/npool/nimage =      32
     Subspace diagonalization in iterative solution of the eigenvalue problem:
     a serial algorithm will be used


     Parallelization info
     --------------------
     sticks:   dense  smooth     PW     G-vecs:    dense   smooth      PW
     Min         104     104     28                 5606     5606     813
     Max         105     105     30                 5609     5609     819
     Sum        3333    3333    923               179405   179405   26085

     Using Slab Decomposition



     bravais-lattice index     =            8
     lattice parameter (alat)  =       8.2013  a.u.
     unit-cell volume          =    1555.2557 (a.u.)^3
     number of atoms/cell      =           24
     number of atomic types    =            2
     number of electrons       =        64.00
     number of Kohn-Sham states=           32
     kinetic-energy cutoff     =      90.0000  Ry
     charge density cutoff     =     360.0000  Ry
     scf convergence threshold =      1.0E-07
     mixing beta               =       0.7000
     number of iterations used =            8  plain     mixing
     Exchange-correlation= VDW-DF2
                           (   1   4  13   0   2   0   0)

     celldm(1)=   8.201275  celldm(2)=   1.732119  celldm(3)=   1.627721
     celldm(4)=   0.000000  celldm(5)=   0.000000  celldm(6)=   0.000000

     crystal axes: (cart. coord. in units of alat)
               a(1) = (   1.000000   0.000000   0.000000 )  
               a(2) = (   0.000000   1.732119   0.000000 )  
               a(3) = (   0.000000   0.000000   1.627721 )  

     reciprocal axes: (cart. coord. in units 2 pi/alat)
               b(1) = (  1.000000  0.000000  0.000000 )  
               b(2) = (  0.000000  0.577328  0.000000 )  
               b(3) = (  0.000000  0.000000  0.614356 )  


     PseudoPot. # 1 for H  read from file:
     ./H.pbe-van_ak.UPF
     MD5 check sum: 077eb6d537518a38cb46c6de387227b7
     Pseudo is Ultrasoft, Zval =  1.0
     Generated by new atomic code, or converted to UPF format
     Using radial grid of  615 points,  1 beta functions with: 
                l(1) =   0
     Q(r) pseudized with  8 coefficients,  rinner =    0.800

     PseudoPot. # 2 for O  read from file:
     ./O.pbe-van_ak.UPF
     MD5 check sum: 78c19812648e8988a0fe644b0f25305e
     Pseudo is Ultrasoft, Zval =  6.0
     Generated by new atomic code, or converted to UPF format
     Using radial grid of  737 points,  4 beta functions with: 
                l(1) =   0
                l(2) =   0
                l(3) =   1
                l(4) =   1
     Q(r) pseudized with  8 coefficients,  rinner =    0.800   0.800   0.800


     atomic species   valence    mass     pseudopotential
     H                 1.00     1.00800     H ( 1.00)
     O                 6.00    16.00000     O ( 1.00)

      2 Sym. Ops. (no inversion) found



   Cartesian axes

     site n.     atom                  positions (alat units)
         1        O      tau(   1) = (   0.0000000   1.1505053   0.0983911  )
         2        O      tau(   2) = (   0.0000000   0.5816137   0.9122516  )
         3        O      tau(   3) = (   0.5000000   0.2844458   0.0983911  )
         4        O      tau(   4) = (   0.5000000   1.4476733   0.9122516  )
         5        O      tau(   5) = (   0.5000000   1.4413210   1.5245781  )
         6        O      tau(   6) = (   0.5000000   0.2907980   0.7107175  )
         7        O      tau(   7) = (   0.0000000   0.5752615   1.5245780  )
         8        O      tau(   8) = (   0.0000000   1.1568575   0.7107175  )
         9        H      tau(   9) = (   0.0000000   1.1476935   0.3199225  )
        10        H      tau(  10) = (   0.0000000   0.5844255   1.1337830  )
        11        H      tau(  11) = (   0.5000000   0.2816340   0.3199225  )
        12        H      tau(  12) = (   0.5000000   1.4504851   1.1337830  )
        13        H      tau(  13) = (   0.0000000   0.9389577   0.0320281  )
        14        H      tau(  14) = (   0.0000000   0.7931613   0.8458886  )
        15        H      tau(  15) = (   0.5000000   0.0728982   0.0320281  )
        16        H      tau(  16) = (   0.5000000   1.6592209   0.8458886  )
        17        H      tau(  17) = (   0.6777387   1.3318248   1.5989889  )
        18        H      tau(  18) = (   0.3222613   0.4002942   0.7851284  )
        19        H      tau(  19) = (   0.6777387   0.4002942   0.7851284  )
        20        H      tau(  20) = (   0.3222613   1.3318248   1.5989889  )
        21        H      tau(  21) = (   0.1777387   0.4657653   1.5989889  )
        22        H      tau(  22) = (   0.8222613   1.2663538   0.7851284  )
        23        H      tau(  23) = (   0.1777387   1.2663538   0.7851284  )
        24        H      tau(  24) = (   0.8222613   0.4657653   1.5989889  )

     number of k points=   460

     Number of k-points >= 100: set verbosity='high' to print them.

     Dense  grid:   179405 G-vectors     FFT dimensions: (  50,  90,  81)

     Estimated max dynamical RAM per process >      47.08 MB

     Estimated total dynamical RAM >       5.76 GB

     Initial potential from superposition of free atoms

     starting charge      63.9998, renormalised to      64.0000


     %%%%%%%%%%%%%%%%%%%%%%%%%%%%%%%%%%%%%%%%%%%%%%%%%%%%%%%%%%%%%%%%%%%%%%%%
     %                                                                      %
     % You are using vdW-DF, which was implemented by the Thonhauser group. %
     % Please cite the following two papers that made this development      %
     % possible and the two reviews that describe the various versions:     %
     %                                                                      %
     %   T. Thonhauser et al., PRL 115, 136402 (2015).                      %
     %   T. Thonhauser et al., PRB 76, 125112 (2007).                       %
     %   K. Berland et al., Rep. Prog. Phys. 78, 066501 (2015).             %
     %   D.C. Langreth et al., J. Phys.: Condens. Matter 21, 084203 (2009). %
     %                                                                      %
     % If you are calculating stress with vdW-DF, please also cite:         %
     %                                                                      %
     %   R. Sabatini et al., J. Phys.: Condens. Matter 24, 424209 (2012).   %
     %                                                                      %
     %%%%%%%%%%%%%%%%%%%%%%%%%%%%%%%%%%%%%%%%%%%%%%%%%%%%%%%%%%%%%%%%%%%%%%%%

     %%%%%%%%%%%%%%%%%%%%%%%%%%%%%%%%%%%%%%%%%%%%%%%%%%%%%%%%%%%%%%%%%%%%%%%%
     %                                                                      %
     %  vdW-DF NEWS:                                                        %
     %                                                                      %
     %  * vdW-DF3 is now available. DOI: 10.1021/acs.jctc.0c00471           %
     %    use with input_dft = 'vdW-DF3-opt1' or 'vdW-DF3-opt2'             %
     %                                                                      %
     %  * Unscreened and range-separated hybrid vdW-DF-cx functionals       %
     %    DOI: 10.1063/1.4986522 and 10.1088/1361-648X/ac2ad2               %
     %    use with input_dft = 'vdW-DF-cx0'    and 'vdW-DF-ahcx'            %
     %  * Unscreened and range-separated hybrid vdW-DF2-b86r functionals    %
     %    DOI: 10.1063/1.4986522 and DOI: 10.1103/PhysRevX.12.041003        %
     %    use with input_dft = 'vdW-DF2-br0' and 'vdW-DF2-ahbr'             %
     %                                                                      %
     %%%%%%%%%%%%%%%%%%%%%%%%%%%%%%%%%%%%%%%%%%%%%%%%%%%%%%%%%%%%%%%%%%%%%%%%


     Starting wfcs are   48 randomized atomic wfcs

     total cpu time spent up to now is        6.3 secs

     per-process dynamical memory:    55.2 Mb

     Self-consistent Calculation

     iteration #  1     ecut=    90.00 Ry     beta= 0.70
     Davidson diagonalization with overlap
     ethr =  1.00E-02,  avg # of iterations =  2.0

     total cpu time spent up to now is       15.0 secs

     total energy              =    -277.21105619 Ry
     estimated scf accuracy    <       3.36489618 Ry

     iteration #  2     ecut=    90.00 Ry     beta= 0.70
     Davidson diagonalization with overlap
     ethr =  5.26E-03,  avg # of iterations =  3.0

     total cpu time spent up to now is       26.6 secs

     total energy              =    -278.30225814 Ry
     estimated scf accuracy    <       2.06449618 Ry

     iteration #  3     ecut=    90.00 Ry     beta= 0.70
     Davidson diagonalization with overlap
     ethr =  3.23E-03,  avg # of iterations =  2.0

     total cpu time spent up to now is       35.5 secs

     total energy              =    -278.59576289 Ry
     estimated scf accuracy    <       0.07577935 Ry

     iteration #  4     ecut=    90.00 Ry     beta= 0.70
     Davidson diagonalization with overlap
     ethr =  1.18E-04,  avg # of iterations =  4.0

     total cpu time spent up to now is       48.8 secs

     total energy              =    -278.65399937 Ry
     estimated scf accuracy    <       0.10169732 Ry

     iteration #  5     ecut=    90.00 Ry     beta= 0.70
     Davidson diagonalization with overlap
     ethr =  1.18E-04,  avg # of iterations =  2.0

     total cpu time spent up to now is       56.8 secs

     total energy              =    -278.65469718 Ry
     estimated scf accuracy    <       0.01380843 Ry

     iteration #  6     ecut=    90.00 Ry     beta= 0.70
     Davidson diagonalization with overlap
     ethr =  2.16E-05,  avg # of iterations =  2.6

     total cpu time spent up to now is       66.7 secs

     total energy              =    -278.66024783 Ry
     estimated scf accuracy    <       0.00030669 Ry

     iteration #  7     ecut=    90.00 Ry     beta= 0.70
     Davidson diagonalization with overlap
     ethr =  4.79E-07,  avg # of iterations =  4.9

     total cpu time spent up to now is       80.1 secs

     total energy              =    -278.66038943 Ry
     estimated scf accuracy    <       0.00286685 Ry

     iteration #  8     ecut=    90.00 Ry     beta= 0.70
     Davidson diagonalization with overlap
     ethr =  4.79E-07,  avg # of iterations =  1.9

     total cpu time spent up to now is       87.6 secs

     total energy              =    -278.65970203 Ry
     estimated scf accuracy    <       0.00185432 Ry

     iteration #  9     ecut=    90.00 Ry     beta= 0.70
     Davidson diagonalization with overlap
     ethr =  4.79E-07,  avg # of iterations =  3.0

     total cpu time spent up to now is       99.3 secs

     total energy              =    -278.65989095 Ry
     estimated scf accuracy    <       0.00011936 Ry

     iteration # 10     ecut=    90.00 Ry     beta= 0.70
     Davidson diagonalization with overlap
     ethr =  1.86E-07,  avg # of iterations =  2.0

     total cpu time spent up to now is      107.2 secs

     total energy              =    -278.65989191 Ry
     estimated scf accuracy    <       0.00003158 Ry

     iteration # 11     ecut=    90.00 Ry     beta= 0.70
     Davidson diagonalization with overlap
     ethr =  4.93E-08,  avg # of iterations =  2.0

     total cpu time spent up to now is      115.7 secs

     total energy              =    -278.65989378 Ry
     estimated scf accuracy    <       0.00000425 Ry

     iteration # 12     ecut=    90.00 Ry     beta= 0.70
     Davidson diagonalization with overlap
     ethr =  6.64E-09,  avg # of iterations =  3.1

     total cpu time spent up to now is      127.1 secs

     total energy              =    -278.65989601 Ry
     estimated scf accuracy    <       0.00000124 Ry

     iteration # 13     ecut=    90.00 Ry     beta= 0.70
     Davidson diagonalization with overlap
     ethr =  1.93E-09,  avg # of iterations =  2.0

     total cpu time spent up to now is      135.8 secs

     total energy              =    -278.65989608 Ry
     estimated scf accuracy    <       0.00000016 Ry

     iteration # 14     ecut=    90.00 Ry     beta= 0.70
     Davidson diagonalization with overlap
     ethr =  2.45E-10,  avg # of iterations =  2.2

     total cpu time spent up to now is      145.4 secs

     End of self-consistent calculation

     Number of k-points >= 100: set verbosity='high' to print the bands.

     highest occupied level (ev):    -3.4257

!    total energy              =    -278.65989613 Ry
     estimated scf accuracy    <          2.3E-09 Ry

     The total energy is the sum of the following terms:
     one-electron contribution =    -230.79380346 Ry
     hartree contribution      =     137.21832867 Ry
     xc contribution           =     -71.25369777 Ry
     ewald contribution        =    -113.83072357 Ry

     convergence has been achieved in  14 iterations

     Forces acting on atoms (cartesian axes, Ry/au):

     atom    1 type  2   force =     0.00000000    0.05402060   -0.03966992
     atom    2 type  2   force =     0.00000000   -0.05407559   -0.03963510
     atom    3 type  2   force =     0.00000000    0.05402002   -0.03966944
     atom    4 type  2   force =     0.00000000   -0.05407509   -0.03963475
     atom    5 type  2   force =     0.00000000    0.05389319   -0.03766448
     atom    6 type  2   force =     0.00000000   -0.05393958   -0.03788319
     atom    7 type  2   force =     0.00000000    0.05389312   -0.03766440
     atom    8 type  2   force =     0.00000000   -0.05393913   -0.03788286
     atom    9 type  1   force =     0.00000000    0.00279765    0.06119626
     atom   10 type  1   force =     0.00000000   -0.00274575    0.06128276
     atom   11 type  1   force =     0.00000000    0.00279762    0.06119643
     atom   12 type  1   force =     0.00000000   -0.00274573    0.06128296
     atom   13 type  1   force =     0.00000000   -0.05668603   -0.02165563
     atom   14 type  1   force =     0.00000000    0.05670032   -0.02164019
     atom   15 type  1   force =     0.00000000   -0.05668627   -0.02165568
     atom   16 type  1   force =     0.00000000    0.05670044   -0.02164020
     atom   17 type  1   force =     0.05112071   -0.02804040    0.01890411
     atom   18 type  1   force =    -0.05111004    0.02805791    0.01893020
     atom   19 type  1   force =     0.05111004    0.02805791    0.01893020
     atom   20 type  1   force =    -0.05112071   -0.02804040    0.01890411
     atom   21 type  1   force =     0.05112073   -0.02804042    0.01890412
     atom   22 type  1   force =    -0.05111017    0.02805803    0.01893028
     atom   23 type  1   force =     0.05111017    0.02805803    0.01893028
     atom   24 type  1   force =    -0.05112073   -0.02804042    0.01890412

     Total force =     0.308434     Total SCF correction =     0.000031


     Computing stress (Cartesian axis) and pressure

          total   stress  (Ry/bohr**3)                   (kbar)     P=       86.30
   0.00057613   0.00000000   0.00000000           84.75        0.00        0.00
   0.00000000   0.00060452   0.00000002            0.00       88.93        0.00
   0.00000000   0.00000002   0.00057927            0.00        0.00       85.21


     Writing all to output data dir ./iceIh/iceIh.save/ :
     XML data file, charge density, pseudopotentials, collected wavefunctions

     init_run     :      5.94s CPU      6.07s WALL (       1 calls)
     electrons    :    136.86s CPU    139.19s WALL (       1 calls)
     forces       :      0.53s CPU      0.54s WALL (       1 calls)
     stress       :      8.02s CPU      8.05s WALL (       1 calls)

     Called by init_run:
     wfcinit      :      4.02s CPU      4.10s WALL (       1 calls)
     potinit      :      1.57s CPU      1.61s WALL (       1 calls)
     hinit0       :      0.26s CPU      0.26s WALL (       1 calls)

     Called by electrons:
     c_bands      :    120.96s CPU    122.95s WALL (      14 calls)
     sum_band     :     14.95s CPU     15.13s WALL (      14 calls)
     v_of_rho     :      2.39s CPU      2.53s WALL (      15 calls)
     newd         :      0.04s CPU      0.05s WALL (      15 calls)
     mix_rho      :      0.04s CPU      0.04s WALL (      14 calls)
     vdW_kernel   :      1.50s CPU      1.52s WALL (       1 calls)

     Called by c_bands:
     init_us_2    :      1.73s CPU      1.79s WALL (    3565 calls)
     cegterg      :    117.23s CPU    118.46s WALL (    1610 calls)

     Called by *egterg:
     cdiaghg      :     10.02s CPU     10.06s WALL (    5886 calls)
     h_psi        :     92.14s CPU     93.30s WALL (    6001 calls)
     s_psi        :      3.41s CPU      3.43s WALL (    6001 calls)
     g_psi        :      0.31s CPU      0.31s WALL (    4276 calls)

     Called by h_psi:
     h_psi:calbec :      5.60s CPU      5.68s WALL (    6001 calls)
     vloc_psi     :     82.23s CPU     83.26s WALL (    6001 calls)
     add_vuspsi   :      3.68s CPU      3.72s WALL (    6001 calls)

     General routines
     calbec       :      7.43s CPU      7.52s WALL (    8186 calls)
     fft          :      0.71s CPU      0.73s WALL (     967 calls)
     ffts         :      0.01s CPU      0.01s WALL (      14 calls)
     fftw         :     86.37s CPU     87.42s WALL (  380158 calls)

     Parallel routines

     PWSCF        :   2m33.71s CPU   2m41.65s WALL


   This run was terminated on:  16:23:52  26Mar2026            

=------------------------------------------------------------------------------=
   JOB DONE.
=------------------------------------------------------------------------------=
