
     Program PWSCF v.7.3.1 starts on  1Apr2026 at 20:35:36 

     This program is part of the open-source Quantum ESPRESSO suite
     for quantum simulation of materials; please cite
         "P. Giannozzi et al., J. Phys.:Condens. Matter 21 395502 (2009);
         "P. Giannozzi et al., J. Phys.:Condens. Matter 29 465901 (2017);
         "P. Giannozzi et al., J. Chem. Phys. 152 154105 (2020);
          URL http://www.quantum-espresso.org", 
     in publications or presentations arising from this work. More details at
     http://www.quantum-espresso.org/quote

     Parallel version (MPI), running on   128 processors

     MPI processes distributed on     1 nodes
     237418 MiB available memory on the printing compute node when the environment starts

     Waiting for input...
     Reading input from standard input

     Current dimensions of program PWSCF are:
     Max number of different atomic species (ntypx) = 10
     Max number of k-points (npk) =  40000
     Max angular momentum in pseudopotentials (lmaxx) =  4

     IMPORTANT: XC functional enforced from input :
     Exchange-correlation= VDW-DF2
                           (   1   4  13   0   2   0   0)
     Any further DFT definition will be discarded
     Please, verify this is what you really want

     Found identity + ( -0.5000 -0.5000  0.0000) symmetry
     This is a supercell, fractional translations are disabled

     K-points division:     npool     =       4
     R & G space division:  proc/nbgrp/npool/nimage =      32
     Subspace diagonalization in iterative solution of the eigenvalue problem:
     a serial algorithm will be used


     Parallelization info
     --------------------
     sticks:   dense  smooth     PW     G-vecs:    dense   smooth      PW
     Min         104     104     29                 5656     5656     819
     Max         105     105     30                 5663     5663     823
     Sum        3347    3347    931               181059   181059   26273

     Using Slab Decomposition



     bravais-lattice index     =            8
     lattice parameter (alat)  =       8.2268  a.u.
     unit-cell volume          =    1569.8209 (a.u.)^3
     number of atoms/cell      =           24
     number of atomic types    =            2
     number of electrons       =        64.00
     number of Kohn-Sham states=           32
     kinetic-energy cutoff     =      90.0000  Ry
     charge density cutoff     =     360.0000  Ry
     scf convergence threshold =      1.0E-07
     mixing beta               =       0.7000
     number of iterations used =            8  plain     mixing
     energy convergence thresh.=      1.0E-04
     force convergence thresh. =      1.0E-03
     Exchange-correlation= VDW-DF2
                           (   1   4  13   0   2   0   0)
     nstep                     =           50


     celldm(1)=   8.226797  celldm(2)=   1.732119  celldm(3)=   1.627721
     celldm(4)=   0.000000  celldm(5)=   0.000000  celldm(6)=   0.000000

     crystal axes: (cart. coord. in units of alat)
               a(1) = (   1.000000   0.000000   0.000000 )  
               a(2) = (   0.000000   1.732119   0.000000 )  
               a(3) = (   0.000000   0.000000   1.627721 )  

     reciprocal axes: (cart. coord. in units 2 pi/alat)
               b(1) = (  1.000000  0.000000  0.000000 )  
               b(2) = (  0.000000  0.577328  0.000000 )  
               b(3) = (  0.000000  0.000000  0.614356 )  


     PseudoPot. # 1 for H  read from file:
     ./H.pbe-van_ak.UPF
     MD5 check sum: 077eb6d537518a38cb46c6de387227b7
     Pseudo is Ultrasoft, Zval =  1.0
     Generated by new atomic code, or converted to UPF format
     Using radial grid of  615 points,  1 beta functions with: 
                l(1) =   0
     Q(r) pseudized with  8 coefficients,  rinner =    0.800

     PseudoPot. # 2 for O  read from file:
     ./O.pbe-van_ak.UPF
     MD5 check sum: 78c19812648e8988a0fe644b0f25305e
     Pseudo is Ultrasoft, Zval =  6.0
     Generated by new atomic code, or converted to UPF format
     Using radial grid of  737 points,  4 beta functions with: 
                l(1) =   0
                l(2) =   0
                l(3) =   1
                l(4) =   1
     Q(r) pseudized with  8 coefficients,  rinner =    0.800   0.800   0.800


     atomic species   valence    mass     pseudopotential
     H                 1.00     1.00800     H ( 1.00)
     O                 6.00    16.00000     O ( 1.00)

      2 Sym. Ops. (no inversion) found



   Cartesian axes

     site n.     atom                  positions (alat units)
         1        O      tau(   1) = (   0.0000000   1.1515127   0.1027092  )
         2        O      tau(   2) = (   0.0000000   0.5806063   0.9165697  )
         3        O      tau(   3) = (   0.5000000   0.2854532   0.1027092  )
         4        O      tau(   4) = (   0.5000000   1.4466659   0.9165697  )
         5        O      tau(   5) = (   0.5000000   1.4298643   1.5250118  )
         6        O      tau(   6) = (   0.5000000   0.3022548   0.7111513  )
         7        O      tau(   7) = (   0.0000000   0.5638048   1.5250118  )
         8        O      tau(   8) = (   0.0000000   1.1683143   0.7111513  )
         9        H      tau(   9) = (   0.0000000   1.1494343   0.3195216  )
        10        H      tau(  10) = (   0.0000000   0.5826848   1.1333822  )
        11        H      tau(  11) = (   0.5000000   0.2833747   0.3195216  )
        12        H      tau(  12) = (   0.5000000   1.4487443   1.1333822  )
        13        H      tau(  13) = (   0.0000000   0.9289355   0.0297873  )
        14        H      tau(  14) = (   0.0000000   0.8031836   0.8436478  )
        15        H      tau(  15) = (   0.5000000   0.0628759   0.0297873  )
        16        H      tau(  16) = (   0.5000000   1.6692431   0.8436478  )
        17        H      tau(  17) = (   0.6766000   1.3420459   1.5979337  )
        18        H      tau(  18) = (   0.3234000   0.3900732   0.7840732  )
        19        H      tau(  19) = (   0.6766000   0.3900732   0.7840732  )
        20        H      tau(  20) = (   0.3234000   1.3420459   1.5979337  )
        21        H      tau(  21) = (   0.1766000   0.4759863   1.5979337  )
        22        H      tau(  22) = (   0.8234000   1.2561327   0.7840732  )
        23        H      tau(  23) = (   0.1766000   1.2561327   0.7840732  )
        24        H      tau(  24) = (   0.8234000   0.4759863   1.5979337  )

     number of k points=   460

     Number of k-points >= 100: set verbosity='high' to print them.

     Dense  grid:   181059 G-vectors     FFT dimensions: (  50,  90,  81)

     Estimated max dynamical RAM per process >      47.53 MB

     Estimated total dynamical RAM >       5.81 GB

     Initial potential from superposition of free atoms

     starting charge      63.9998, renormalised to      64.0000


     %%%%%%%%%%%%%%%%%%%%%%%%%%%%%%%%%%%%%%%%%%%%%%%%%%%%%%%%%%%%%%%%%%%%%%%%
     %                                                                      %
     % You are using vdW-DF, which was implemented by the Thonhauser group. %
     % Please cite the following two papers that made this development      %
     % possible and the two reviews that describe the various versions:     %
     %                                                                      %
     %   T. Thonhauser et al., PRL 115, 136402 (2015).                      %
     %   T. Thonhauser et al., PRB 76, 125112 (2007).                       %
     %   K. Berland et al., Rep. Prog. Phys. 78, 066501 (2015).             %
     %   D.C. Langreth et al., J. Phys.: Condens. Matter 21, 084203 (2009). %
     %                                                                      %
     % If you are calculating stress with vdW-DF, please also cite:         %
     %                                                                      %
     %   R. Sabatini et al., J. Phys.: Condens. Matter 24, 424209 (2012).   %
     %                                                                      %
     %%%%%%%%%%%%%%%%%%%%%%%%%%%%%%%%%%%%%%%%%%%%%%%%%%%%%%%%%%%%%%%%%%%%%%%%

     %%%%%%%%%%%%%%%%%%%%%%%%%%%%%%%%%%%%%%%%%%%%%%%%%%%%%%%%%%%%%%%%%%%%%%%%
     %                                                                      %
     %  vdW-DF NEWS:                                                        %
     %                                                                      %
     %  * vdW-DF3 is now available. DOI: 10.1021/acs.jctc.0c00471           %
     %    use with input_dft = 'vdW-DF3-opt1' or 'vdW-DF3-opt2'             %
     %                                                                      %
     %  * Unscreened and range-separated hybrid vdW-DF-cx functionals       %
     %    DOI: 10.1063/1.4986522 and 10.1088/1361-648X/ac2ad2               %
     %    use with input_dft = 'vdW-DF-cx0'    and 'vdW-DF-ahcx'            %
     %  * Unscreened and range-separated hybrid vdW-DF2-b86r functionals    %
     %    DOI: 10.1063/1.4986522 and DOI: 10.1103/PhysRevX.12.041003        %
     %    use with input_dft = 'vdW-DF2-br0' and 'vdW-DF2-ahbr'             %
     %                                                                      %
     %%%%%%%%%%%%%%%%%%%%%%%%%%%%%%%%%%%%%%%%%%%%%%%%%%%%%%%%%%%%%%%%%%%%%%%%


     Starting wfcs are   48 randomized atomic wfcs

     total cpu time spent up to now is        6.3 secs

     per-process dynamical memory:    55.0 Mb

     Self-consistent Calculation

     iteration #  1     ecut=    90.00 Ry     beta= 0.70
     Davidson diagonalization with overlap
     ethr =  1.00E-02,  avg # of iterations =  2.0

     total cpu time spent up to now is       14.9 secs

     total energy              =    -277.06150198 Ry
     estimated scf accuracy    <       3.52973768 Ry

     iteration #  2     ecut=    90.00 Ry     beta= 0.70
     Davidson diagonalization with overlap
     ethr =  5.52E-03,  avg # of iterations =  3.0

     total cpu time spent up to now is       26.6 secs

     total energy              =    -278.19779964 Ry
     estimated scf accuracy    <       2.15071125 Ry

     iteration #  3     ecut=    90.00 Ry     beta= 0.70
     Davidson diagonalization with overlap
     ethr =  3.36E-03,  avg # of iterations =  2.0

     total cpu time spent up to now is       35.4 secs

     total energy              =    -278.50916510 Ry
     estimated scf accuracy    <       0.07620279 Ry

     iteration #  4     ecut=    90.00 Ry     beta= 0.70
     Davidson diagonalization with overlap
     ethr =  1.19E-04,  avg # of iterations =  4.0

     total cpu time spent up to now is       48.7 secs

     total energy              =    -278.56895879 Ry
     estimated scf accuracy    <       0.09916312 Ry

     iteration #  5     ecut=    90.00 Ry     beta= 0.70
     Davidson diagonalization with overlap
     ethr =  1.19E-04,  avg # of iterations =  2.0

     total cpu time spent up to now is       56.2 secs

     total energy              =    -278.57345766 Ry
     estimated scf accuracy    <       0.01472318 Ry

     iteration #  6     ecut=    90.00 Ry     beta= 0.70
     Davidson diagonalization with overlap
     ethr =  2.30E-05,  avg # of iterations =  2.0

     total cpu time spent up to now is       64.4 secs

     total energy              =    -278.57208277 Ry
     estimated scf accuracy    <       0.00527903 Ry

     iteration #  7     ecut=    90.00 Ry     beta= 0.70
     Davidson diagonalization with overlap
     ethr =  8.25E-06,  avg # of iterations =  2.6

     total cpu time spent up to now is       74.2 secs

     total energy              =    -278.57434477 Ry
     estimated scf accuracy    <       0.00027634 Ry

     iteration #  8     ecut=    90.00 Ry     beta= 0.70
     Davidson diagonalization with overlap
     ethr =  4.32E-07,  avg # of iterations =  3.0

     total cpu time spent up to now is       85.3 secs

     total energy              =    -278.57409863 Ry
     estimated scf accuracy    <       0.00117785 Ry

     iteration #  9     ecut=    90.00 Ry     beta= 0.70
     Davidson diagonalization with overlap
     ethr =  4.32E-07,  avg # of iterations =  2.0

     total cpu time spent up to now is       94.6 secs

     total energy              =    -278.57405528 Ry
     estimated scf accuracy    <       0.00031933 Ry

     iteration # 10     ecut=    90.00 Ry     beta= 0.70
     Davidson diagonalization with overlap
     ethr =  4.32E-07,  avg # of iterations =  2.0

     total cpu time spent up to now is      103.1 secs

     total energy              =    -278.57408664 Ry
     estimated scf accuracy    <       0.00005000 Ry

     iteration # 11     ecut=    90.00 Ry     beta= 0.70
     Davidson diagonalization with overlap
     ethr =  7.81E-08,  avg # of iterations =  2.0

     total cpu time spent up to now is      111.6 secs

     total energy              =    -278.57409178 Ry
     estimated scf accuracy    <       0.00001321 Ry

     iteration # 12     ecut=    90.00 Ry     beta= 0.70
     Davidson diagonalization with overlap
     ethr =  2.06E-08,  avg # of iterations =  2.0

     total cpu time spent up to now is      120.3 secs

     total energy              =    -278.57409215 Ry
     estimated scf accuracy    <       0.00000325 Ry

     iteration # 13     ecut=    90.00 Ry     beta= 0.70
     Davidson diagonalization with overlap
     ethr =  5.08E-09,  avg # of iterations =  3.0

     total cpu time spent up to now is      130.9 secs

     total energy              =    -278.57409345 Ry
     estimated scf accuracy    <       0.00000012 Ry

     iteration # 14     ecut=    90.00 Ry     beta= 0.70
     Davidson diagonalization with overlap
     ethr =  1.81E-10,  avg # of iterations =  2.7

     total cpu time spent up to now is      140.9 secs

     End of self-consistent calculation

     Number of k-points >= 100: set verbosity='high' to print the bands.

     highest occupied level (ev):    -3.3848

!    total energy              =    -278.57409350 Ry
     estimated scf accuracy    <          7.3E-09 Ry

     The total energy is the sum of the following terms:
     one-electron contribution =    -233.61173171 Ry
     hartree contribution      =     138.42758912 Ry
     xc contribution           =     -71.41527858 Ry
     ewald contribution        =    -111.97467232 Ry

     convergence has been achieved in  14 iterations

     Forces acting on atoms (cartesian axes, Ry/au):

     atom    1 type  2   force =     0.00000000   -0.02987609   -0.10548256
     atom    2 type  2   force =     0.00000000    0.02984535   -0.10547779
     atom    3 type  2   force =     0.00000000   -0.02987614   -0.10548251
     atom    4 type  2   force =     0.00000000    0.02984538   -0.10547776
     atom    5 type  2   force =     0.00000000    0.16276360   -0.11939411
     atom    6 type  2   force =     0.00000000   -0.16280769   -0.11967307
     atom    7 type  2   force =     0.00000000    0.16276364   -0.11939417
     atom    8 type  2   force =     0.00000000   -0.16280773   -0.11967314
     atom    9 type  1   force =     0.00000000   -0.00150261    0.09091780
     atom   10 type  1   force =     0.00000000    0.00155162    0.09101379
     atom   11 type  1   force =     0.00000000   -0.00150261    0.09091782
     atom   12 type  1   force =     0.00000000    0.00155163    0.09101380
     atom   13 type  1   force =     0.00000000    0.02929241    0.00875858
     atom   14 type  1   force =     0.00000000   -0.02928831    0.00873620
     atom   15 type  1   force =     0.00000000    0.02929240    0.00875857
     atom   16 type  1   force =     0.00000000   -0.02928829    0.00873620
     atom   17 type  1   force =     0.12839954   -0.08134213    0.06264492
     atom   18 type  1   force =    -0.12838839    0.08135298    0.06265569
     atom   19 type  1   force =     0.12838839    0.08135298    0.06265569
     atom   20 type  1   force =    -0.12839954   -0.08134213    0.06264492
     atom   21 type  1   force =     0.12839950   -0.08134211    0.06264490
     atom   22 type  1   force =    -0.12838836    0.08135297    0.06265568
     atom   23 type  1   force =     0.12838836    0.08135297    0.06265568
     atom   24 type  1   force =    -0.12839950   -0.08134211    0.06264490

     Total force =     0.681386     Total SCF correction =     0.000148


     Computing stress (Cartesian axis) and pressure

          total   stress  (Ry/bohr**3)                   (kbar)     P=      111.48
   0.00116517   0.00000000   0.00000000          171.40        0.00        0.00
   0.00000000   0.00028656  -0.00000010            0.00       42.15       -0.01
   0.00000000  -0.00000010   0.00082174            0.00       -0.01      120.88


     BFGS Geometry Optimization
     Energy error            =      0.0E+00 Ry
     Gradient error          =      1.6E-01 Ry/Bohr

     number of scf cycles    =   1
     number of bfgs steps    =   0

     energy             new  =    -278.5740934952 Ry

     new trust radius        =       0.2020594436 bohr
     new conv_thr            =       0.0000001000 Ry


ATOMIC_POSITIONS (crystal)
O                0.0000000000        0.6627033900        0.0552228386
O                0.0000000000        0.3372944530        0.5552231725
O                0.5000000000        0.1627033864        0.0552228430
O                0.5000000000        0.8372944552        0.5552231741
O                0.5000000000        0.8369221844        0.9279839771
O                0.5000000000        0.1630747218        0.4279631158
O                0.0000000000        0.3369221871        0.9279839730
O                0.0000000000        0.6630747184        0.4279631103
H                0.0000000000        0.6634945802        0.2030895053
H                0.0000000000        0.3365088595        0.7030967036
H                0.5000000000        0.1634945800        0.2030895072
H                0.5000000000        0.8365088596        0.7030967046
H                0.0000000000        0.5383556416        0.0189540688
H                0.0000000000        0.4616446462        0.5189523941
H                0.5000000000        0.0383556409        0.0189540686
H                0.5000000000        0.9616446474        0.5189523935
H                0.6922074552        0.7690917002        0.9863781630
H                0.3077939003        0.2309090615        0.4863789673
H                0.6922060997        0.2309090615        0.4863789673
H                0.3077925448        0.7690917002        0.9863781630
H                0.1922074502        0.2690917018        0.9863781613
H                0.8077939037        0.7309090607        0.4863789663
H                0.1922060963        0.7309090607        0.4863789663
H                0.8077925498        0.2690917018        0.9863781613



     Writing config-only to output data dir ./iceIh_vdw/iceIh_vdw.save/ :
     XML data file
     NEW-OLD atomic charge density approx. for the potential

     total cpu time spent up to now is      150.4 secs

     per-process dynamical memory:    55.2 Mb

     Self-consistent Calculation

     iteration #  1     ecut=    90.00 Ry     beta= 0.70
     Davidson diagonalization with overlap
     ethr =  1.00E-06,  avg # of iterations = 11.0

     total cpu time spent up to now is      179.7 secs

     total energy              =    -278.60330010 Ry
     estimated scf accuracy    <       0.13045191 Ry

     iteration #  2     ecut=    90.00 Ry     beta= 0.70
     Davidson diagonalization with overlap
     ethr =  2.04E-04,  avg # of iterations =  3.0

     total cpu time spent up to now is      190.4 secs

     total energy              =    -278.63188506 Ry
     estimated scf accuracy    <       0.06059227 Ry

     iteration #  3     ecut=    90.00 Ry     beta= 0.70
     Davidson diagonalization with overlap
     ethr =  9.47E-05,  avg # of iterations =  2.6

     total cpu time spent up to now is      199.7 secs

     total energy              =    -278.64577521 Ry
     estimated scf accuracy    <       0.00132414 Ry

     iteration #  4     ecut=    90.00 Ry     beta= 0.70
     Davidson diagonalization with overlap
     ethr =  2.07E-06,  avg # of iterations =  3.6

     total cpu time spent up to now is      211.6 secs

     total energy              =    -278.64626604 Ry
     estimated scf accuracy    <       0.00094895 Ry

     iteration #  5     ecut=    90.00 Ry     beta= 0.70
     Davidson diagonalization with overlap
     ethr =  1.48E-06,  avg # of iterations =  2.0

     total cpu time spent up to now is      220.3 secs

     total energy              =    -278.64638115 Ry
     estimated scf accuracy    <       0.00008330 Ry

     iteration #  6     ecut=    90.00 Ry     beta= 0.70
     Davidson diagonalization with overlap
     ethr =  1.30E-07,  avg # of iterations =  4.5

     total cpu time spent up to now is      233.7 secs

     total energy              =    -278.64641356 Ry
     estimated scf accuracy    <       0.00011797 Ry

     iteration #  7     ecut=    90.00 Ry     beta= 0.70
     Davidson diagonalization with overlap
     ethr =  1.30E-07,  avg # of iterations =  2.4

     total cpu time spent up to now is      243.0 secs

     total energy              =    -278.64642742 Ry
     estimated scf accuracy    <       0.00000642 Ry

     iteration #  8     ecut=    90.00 Ry     beta= 0.70
     Davidson diagonalization with overlap
     ethr =  1.00E-08,  avg # of iterations =  4.4

     total cpu time spent up to now is      255.9 secs

     total energy              =    -278.64643210 Ry
     estimated scf accuracy    <       0.00000381 Ry

     iteration #  9     ecut=    90.00 Ry     beta= 0.70
     Davidson diagonalization with overlap
     ethr =  5.95E-09,  avg # of iterations =  1.5

     total cpu time spent up to now is      263.4 secs

     total energy              =    -278.64643186 Ry
     estimated scf accuracy    <       0.00000104 Ry

     iteration # 10     ecut=    90.00 Ry     beta= 0.70
     Davidson diagonalization with overlap
     ethr =  1.62E-09,  avg # of iterations =  2.7

     total cpu time spent up to now is      273.6 secs

     End of self-consistent calculation

     Number of k-points >= 100: set verbosity='high' to print the bands.

     highest occupied level (ev):    -3.2046

!    total energy              =    -278.64643216 Ry
     estimated scf accuracy    <       0.00000002 Ry

     The total energy is the sum of the following terms:
     one-electron contribution =    -223.64429732 Ry
     hartree contribution      =     133.97234830 Ry
     xc contribution           =     -70.41354814 Ry
     ewald contribution        =    -118.56093500 Ry

     convergence has been achieved in  10 iterations

     Forces acting on atoms (cartesian axes, Ry/au):

     atom    1 type  2   force =     0.00000000    0.05841853    0.06499569
     atom    2 type  2   force =     0.00000000   -0.05835617    0.06493090
     atom    3 type  2   force =     0.00000000    0.05841856    0.06499568
     atom    4 type  2   force =     0.00000000   -0.05835619    0.06493089
     atom    5 type  2   force =     0.00000000   -0.06947534    0.05940608
     atom    6 type  2   force =     0.00000000    0.06964874    0.05969912
     atom    7 type  2   force =     0.00000000   -0.06947535    0.05940610
     atom    8 type  2   force =     0.00000000    0.06964877    0.05969914
     atom    9 type  1   force =     0.00000000    0.00337570   -0.03721326
     atom   10 type  1   force =     0.00000000   -0.00340506   -0.03727293
     atom   11 type  1   force =     0.00000000    0.00337569   -0.03721325
     atom   12 type  1   force =     0.00000000   -0.00340506   -0.03727292
     atom   13 type  1   force =     0.00000000   -0.04513482   -0.02309346
     atom   14 type  1   force =     0.00000000    0.04507374   -0.02309417
     atom   15 type  1   force =     0.00000000   -0.04513484   -0.02309346
     atom   16 type  1   force =     0.00000000    0.04507375   -0.02309417
     atom   17 type  1   force =    -0.04497014    0.02647468   -0.03207006
     atom   18 type  1   force =     0.04499783   -0.02654734   -0.03210893
     atom   19 type  1   force =    -0.04499783   -0.02654734   -0.03210893
     atom   20 type  1   force =     0.04497014    0.02647468   -0.03207006
     atom   21 type  1   force =    -0.04497012    0.02647468   -0.03207006
     atom   22 type  1   force =     0.04499782   -0.02654735   -0.03210894
     atom   23 type  1   force =    -0.04499782   -0.02654735   -0.03210894
     atom   24 type  1   force =     0.04497012    0.02647468   -0.03207006

     Total force =     0.331622     Total SCF correction =     0.000118


     Computing stress (Cartesian axis) and pressure

          total   stress  (Ry/bohr**3)                   (kbar)     P=      -13.52
  -0.00033338   0.00000000   0.00000000          -49.04        0.00        0.00
   0.00000000   0.00024166  -0.00000011            0.00       35.55       -0.02
   0.00000000  -0.00000011  -0.00018402            0.00       -0.02      -27.07

     Energy error            =      7.2E-02 Ry
     Gradient error          =      7.0E-02 Ry/Bohr

     number of scf cycles    =   2
     number of bfgs steps    =   1

     energy             old  =    -278.5740934952 Ry
     energy             new  =    -278.6464321594 Ry

     CASE: energy            _new < energy            _old

     new trust radius        =       0.0598118651 bohr
     new conv_thr            =       0.0000000696 Ry


ATOMIC_POSITIONS (crystal)
O                0.0000000000        0.6654998485        0.0584372840
O                0.0000000000        0.3345009809        0.5584342793
O                0.5000000000        0.1654998462        0.0584372877
O                0.5000000000        0.8345009824        0.5584342806
O                0.5000000000        0.8337560038        0.9308913101
O                0.5000000000        0.1662492592        0.4308852038
O                0.0000000000        0.3337560062        0.9308913066
O                0.0000000000        0.6662492568        0.4308851993
H                0.0000000000        0.6636564534        0.2012898102
H                0.0000000000        0.3363456233        0.7012940565
H                0.5000000000        0.1636564528        0.2012898127
H                0.5000000000        0.8363456237        0.7012940580
H                0.0000000000        0.5362028537        0.0177736244
H                0.0000000000        0.4637944765        0.5177718831
H                0.5000000000        0.0362028517        0.0177736242
H                0.5000000000        0.9637944782        0.5177718826
H                0.6887076903        0.7702739968        0.9848062403
H                0.3112960161        0.2297232538        0.4848050520
H                0.6887039839        0.2297232538        0.4848050520
H                0.3112923097        0.7702739968        0.9848062403
H                0.1887076862        0.2702739983        0.9848062386
H                0.8112960193        0.7297232526        0.4848050505
H                0.1887039807        0.7297232526        0.4848050505
H                0.8112923138        0.2702739983        0.9848062386



     Writing config-only to output data dir ./iceIh_vdw/iceIh_vdw.save/ :
     XML data file
     NEW-OLD atomic charge density approx. for the potential

     total cpu time spent up to now is      282.6 secs

     per-process dynamical memory:    55.2 Mb

     Self-consistent Calculation

     iteration #  1     ecut=    90.00 Ry     beta= 0.70
     Davidson diagonalization with overlap
     ethr =  1.00E-06,  avg # of iterations =  9.0

     total cpu time spent up to now is      305.3 secs

     total energy              =    -278.68663189 Ry
     estimated scf accuracy    <       0.01160679 Ry

     iteration #  2     ecut=    90.00 Ry     beta= 0.70
     Davidson diagonalization with overlap
     ethr =  1.81E-05,  avg # of iterations =  3.0

     total cpu time spent up to now is      315.7 secs

     total energy              =    -278.68903247 Ry
     estimated scf accuracy    <       0.00384818 Ry

     iteration #  3     ecut=    90.00 Ry     beta= 0.70
     Davidson diagonalization with overlap
     ethr =  6.01E-06,  avg # of iterations =  3.1

     total cpu time spent up to now is      325.7 secs

     total energy              =    -278.68998042 Ry
     estimated scf accuracy    <       0.00019487 Ry

     iteration #  4     ecut=    90.00 Ry     beta= 0.70
     Davidson diagonalization with overlap
     ethr =  3.04E-07,  avg # of iterations =  2.2

     total cpu time spent up to now is      334.6 secs

     total energy              =    -278.69001683 Ry
     estimated scf accuracy    <       0.00002139 Ry

     iteration #  5     ecut=    90.00 Ry     beta= 0.70
     Davidson diagonalization with overlap
     ethr =  3.34E-08,  avg # of iterations =  2.9

     total cpu time spent up to now is      344.9 secs

     total energy              =    -278.69002409 Ry
     estimated scf accuracy    <       0.00000106 Ry

     iteration #  6     ecut=    90.00 Ry     beta= 0.70
     Davidson diagonalization with overlap
     ethr =  1.66E-09,  avg # of iterations =  3.0

     total cpu time spent up to now is      354.9 secs

     total energy              =    -278.69002415 Ry
     estimated scf accuracy    <       0.00000046 Ry

     iteration #  7     ecut=    90.00 Ry     beta= 0.70
     Davidson diagonalization with overlap
     ethr =  7.12E-10,  avg # of iterations =  3.4

     total cpu time spent up to now is      365.6 secs

     End of self-consistent calculation

     Number of k-points >= 100: set verbosity='high' to print the bands.

     highest occupied level (ev):    -3.2681

!    total energy              =    -278.69002427 Ry
     estimated scf accuracy    <       0.00000007 Ry

     The total energy is the sum of the following terms:
     one-electron contribution =    -225.22870547 Ry
     hartree contribution      =     134.68571383 Ry
     xc contribution           =     -70.57509832 Ry
     ewald contribution        =    -117.57193431 Ry

     convergence has been achieved in   7 iterations

     Forces acting on atoms (cartesian axes, Ry/au):

     atom    1 type  2   force =     0.00000000   -0.01433692    0.00870098
     atom    2 type  2   force =     0.00000000    0.01430540    0.00875990
     atom    3 type  2   force =     0.00000000   -0.01433692    0.00870096
     atom    4 type  2   force =     0.00000000    0.01430540    0.00875989
     atom    5 type  2   force =     0.00000000   -0.02133213    0.02805897
     atom    6 type  2   force =     0.00000000    0.02125109    0.02796843
     atom    7 type  2   force =     0.00000000   -0.02133213    0.02805898
     atom    8 type  2   force =     0.00000000    0.02125109    0.02796844
     atom    9 type  1   force =     0.00000000    0.00396927   -0.00907109
     atom   10 type  1   force =     0.00000000   -0.00396125   -0.00912434
     atom   11 type  1   force =     0.00000000    0.00396926   -0.00907108
     atom   12 type  1   force =     0.00000000   -0.00396124   -0.00912434
     atom   13 type  1   force =     0.00000000    0.01650851   -0.00271403
     atom   14 type  1   force =     0.00000000   -0.01647701   -0.00272122
     atom   15 type  1   force =     0.00000000    0.01650851   -0.00271402
     atom   16 type  1   force =     0.00000000   -0.01647702   -0.00272122
     atom   17 type  1   force =    -0.02062439    0.00757592   -0.01247705
     atom   18 type  1   force =     0.02059591   -0.00753940   -0.01245175
     atom   19 type  1   force =    -0.02059591   -0.00753940   -0.01245175
     atom   20 type  1   force =     0.02062439    0.00757592   -0.01247705
     atom   21 type  1   force =    -0.02062438    0.00757592   -0.01247705
     atom   22 type  1   force =     0.02059591   -0.00753940   -0.01245175
     atom   23 type  1   force =    -0.02059591   -0.00753940   -0.01245175
     atom   24 type  1   force =     0.02062438    0.00757592   -0.01247705

     Total force =     0.112638     Total SCF correction =     0.000169


     Computing stress (Cartesian axis) and pressure

          total   stress  (Ry/bohr**3)                   (kbar)     P=        0.94
  -0.00006672   0.00000000   0.00000000           -9.82        0.00        0.00
   0.00000000   0.00000846   0.00000004            0.00        1.24        0.01
   0.00000000   0.00000004   0.00007738            0.00        0.01       11.38

     Energy error            =      4.4E-02 Ry
     Gradient error          =      2.8E-02 Ry/Bohr

     number of scf cycles    =   3
     number of bfgs steps    =   2

     energy             old  =    -278.6464321594 Ry
     energy             new  =    -278.6900242708 Ry

     CASE: energy            _new < energy            _old

     new trust radius        =       0.0467485867 bohr
     new conv_thr            =       0.0000000281 Ry


ATOMIC_POSITIONS (crystal)
O                0.0000000000        0.6642993751        0.0593700954
O                0.0000000000        0.3356987513        0.5593725387
O                0.5000000000        0.1642993732        0.0593700972
O                0.5000000000        0.8356987526        0.5593725397
O                0.5000000000        0.8317284977        0.9336358531
O                0.5000000000        0.1682697981        0.4336217033
O                0.0000000000        0.3317284998        0.9336358501
O                0.0000000000        0.6682697966        0.4336216999
H                0.0000000000        0.6640071409        0.2003507481
H                0.0000000000        0.3359955859        0.7003499203
H                0.5000000000        0.1640071398        0.2003507513
H                0.5000000000        0.8359955866        0.7003499216
H                0.0000000000        0.5376015404        0.0174997992
H                0.0000000000        0.4623985106        0.5174974041
H                0.5000000000        0.0376015387        0.0174997999
H                0.5000000000        0.9623985120        0.5174974042
H                0.6853710806        0.7710123471        0.9835749244
H                0.3146283189        0.2289880530        0.4835760623
H                0.6853716811        0.2289880530        0.4835760623
H                0.3146289194        0.7710123471        0.9835749244
H                0.1853710782        0.2710123486        0.9835749227
H                0.8146283212        0.7289880516        0.4835760605
H                0.1853716788        0.7289880516        0.4835760605
H                0.8146289218        0.2710123486        0.9835749227



     Writing config-only to output data dir ./iceIh_vdw/iceIh_vdw.save/ :
     XML data file
     NEW-OLD atomic charge density approx. for the potential

     total cpu time spent up to now is      374.6 secs

     per-process dynamical memory:    55.2 Mb

     Self-consistent Calculation

     iteration #  1     ecut=    90.00 Ry     beta= 0.70
     Davidson diagonalization with overlap
     ethr =  1.00E-06,  avg # of iterations =  7.9

     total cpu time spent up to now is      394.5 secs

     total energy              =    -278.69340305 Ry
     estimated scf accuracy    <       0.00597641 Ry

     iteration #  2     ecut=    90.00 Ry     beta= 0.70
     Davidson diagonalization with overlap
     ethr =  9.34E-06,  avg # of iterations =  3.0

     total cpu time spent up to now is      405.3 secs

     total energy              =    -278.69495667 Ry
     estimated scf accuracy    <       0.00254836 Ry

     iteration #  3     ecut=    90.00 Ry     beta= 0.70
     Davidson diagonalization with overlap
     ethr =  3.98E-06,  avg # of iterations =  2.0

     total cpu time spent up to now is      413.9 secs

     total energy              =    -278.69543771 Ry
     estimated scf accuracy    <       0.00007874 Ry

     iteration #  4     ecut=    90.00 Ry     beta= 0.70
     Davidson diagonalization with overlap
     ethr =  1.23E-07,  avg # of iterations =  3.9

     total cpu time spent up to now is      426.0 secs

     total energy              =    -278.69548240 Ry
     estimated scf accuracy    <       0.00005907 Ry

     iteration #  5     ecut=    90.00 Ry     beta= 0.70
     Davidson diagonalization with overlap
     ethr =  9.23E-08,  avg # of iterations =  2.0

     total cpu time spent up to now is      434.6 secs

     total energy              =    -278.69548598 Ry
     estimated scf accuracy    <       0.00000822 Ry

     iteration #  6     ecut=    90.00 Ry     beta= 0.70
     Davidson diagonalization with overlap
     ethr =  1.28E-08,  avg # of iterations =  3.7

     total cpu time spent up to now is      446.2 secs

     total energy              =    -278.69548925 Ry
     estimated scf accuracy    <       0.00000493 Ry

     iteration #  7     ecut=    90.00 Ry     beta= 0.70
     Davidson diagonalization with overlap
     ethr =  7.70E-09,  avg # of iterations =  2.0

     total cpu time spent up to now is      454.7 secs

     total energy              =    -278.69548982 Ry
     estimated scf accuracy    <       0.00000026 Ry

     iteration #  8     ecut=    90.00 Ry     beta= 0.70
     Davidson diagonalization with overlap
     ethr =  4.07E-10,  avg # of iterations =  4.0

     total cpu time spent up to now is      466.6 secs

     total energy              =    -278.69548998 Ry
     estimated scf accuracy    <       0.00000005 Ry

     iteration #  9     ecut=    90.00 Ry     beta= 0.70
     Davidson diagonalization with overlap
     ethr =  8.09E-11,  avg # of iterations =  2.0

     total cpu time spent up to now is      474.7 secs

     End of self-consistent calculation

     Number of k-points >= 100: set verbosity='high' to print the bands.

     highest occupied level (ev):    -3.3281

!    total energy              =    -278.69548997 Ry
     estimated scf accuracy    <       0.00000001 Ry

     The total energy is the sum of the following terms:
     one-electron contribution =    -227.71059834 Ry
     hartree contribution      =     135.79783521 Ry
     xc contribution           =     -70.82426869 Ry
     ewald contribution        =    -115.95845816 Ry

     convergence has been achieved in   9 iterations

     Forces acting on atoms (cartesian axes, Ry/au):

     atom    1 type  2   force =     0.00000000    0.00452417   -0.00223386
     atom    2 type  2   force =     0.00000000   -0.00456519   -0.00227457
     atom    3 type  2   force =     0.00000000    0.00452417   -0.00223385
     atom    4 type  2   force =     0.00000000   -0.00456519   -0.00227457
     atom    5 type  2   force =     0.00000000    0.01753186   -0.00694423
     atom    6 type  2   force =     0.00000000   -0.01748845   -0.00703244
     atom    7 type  2   force =     0.00000000    0.01753186   -0.00694423
     atom    8 type  2   force =     0.00000000   -0.01748845   -0.00703243
     atom    9 type  1   force =     0.00000000    0.00010104    0.00345246
     atom   10 type  1   force =     0.00000000   -0.00007806    0.00351776
     atom   11 type  1   force =     0.00000000    0.00010103    0.00345244
     atom   12 type  1   force =     0.00000000   -0.00007806    0.00351776
     atom   13 type  1   force =     0.00000000   -0.00041716   -0.00275268
     atom   14 type  1   force =     0.00000000    0.00041013   -0.00275181
     atom   15 type  1   force =     0.00000000   -0.00041716   -0.00275268
     atom   16 type  1   force =     0.00000000    0.00041012   -0.00275181
     atom   17 type  1   force =     0.00668031   -0.01154822    0.00426056
     atom   18 type  1   force =    -0.00663885    0.01153905    0.00424912
     atom   19 type  1   force =     0.00663885    0.01153905    0.00424912
     atom   20 type  1   force =    -0.00668031   -0.01154822    0.00426056
     atom   21 type  1   force =     0.00668032   -0.01154822    0.00426056
     atom   22 type  1   force =    -0.00663886    0.01153905    0.00424912
     atom   23 type  1   force =     0.00663886    0.01153905    0.00424912
     atom   24 type  1   force =    -0.00668032   -0.01154822    0.00426056

     Total force =     0.056303     Total SCF correction =     0.000069


     Computing stress (Cartesian axis) and pressure

          total   stress  (Ry/bohr**3)                   (kbar)     P=       29.32
   0.00019162   0.00000000   0.00000000           28.19        0.00        0.00
   0.00000000   0.00020056   0.00000000            0.00       29.50        0.00
   0.00000000   0.00000000   0.00020586            0.00        0.00       30.28

     Energy error            =      5.5E-03 Ry
     Gradient error          =      1.8E-02 Ry/Bohr

     number of scf cycles    =   4
     number of bfgs steps    =   3

     energy             old  =    -278.6900242708 Ry
     energy             new  =    -278.6954899745 Ry

     CASE: energy            _new < energy            _old

     new trust radius        =       0.0146739981 bohr
     new conv_thr            =       0.0000000175 Ry


ATOMIC_POSITIONS (crystal)
O                0.0000000000        0.6646219038        0.0592500344
O                0.0000000000        0.3353743238        0.5592500156
O                0.5000000000        0.1646219021        0.0592500369
O                0.5000000000        0.8353743250        0.5592500166
O                0.5000000000        0.8326651695        0.9331805430
O                0.5000000000        0.1673357402        0.4331622282
O                0.0000000000        0.3326651715        0.9331805402
O                0.0000000000        0.6673357386        0.4331622248
H                0.0000000000        0.6640003270        0.2005591301
H                0.0000000000        0.3360035110        0.7005619678
H                0.5000000000        0.1640003258        0.2005591325
H                0.5000000000        0.8360035117        0.7005619689
H                0.0000000000        0.5374886468        0.0173442677
H                0.0000000000        0.4625108846        0.5173419404
H                0.5000000000        0.0374886451        0.0173442685
H                0.5000000000        0.9625108859        0.5173419407
H                0.6860675910        0.7704084313        0.9838372792
H                0.3139356405        0.2295913156        0.4838376749
H                0.6860643595        0.2295913156        0.4838376749
H                0.3139324090        0.7704084313        0.9838372792
H                0.1860675891        0.2704084326        0.9838372775
H                0.8139356422        0.7295913142        0.4838376732
H                0.1860643578        0.7295913142        0.4838376732
H                0.8139324109        0.2704084326        0.9838372775



     Writing config-only to output data dir ./iceIh_vdw/iceIh_vdw.save/ :
     XML data file
     NEW-OLD atomic charge density approx. for the potential

     total cpu time spent up to now is      483.7 secs

     per-process dynamical memory:    55.2 Mb

     Self-consistent Calculation

     iteration #  1     ecut=    90.00 Ry     beta= 0.70
     Davidson diagonalization with overlap
     ethr =  1.00E-06,  avg # of iterations =  4.0

     total cpu time spent up to now is      497.6 secs

     total energy              =    -278.69667671 Ry
     estimated scf accuracy    <       0.00050959 Ry

     iteration #  2     ecut=    90.00 Ry     beta= 0.70
     Davidson diagonalization with overlap
     ethr =  7.96E-07,  avg # of iterations =  3.0

     total cpu time spent up to now is      508.3 secs

     total energy              =    -278.69680204 Ry
     estimated scf accuracy    <       0.00022840 Ry

     iteration #  3     ecut=    90.00 Ry     beta= 0.70
     Davidson diagonalization with overlap
     ethr =  3.57E-07,  avg # of iterations =  2.3

     total cpu time spent up to now is      517.5 secs

     total energy              =    -278.69684739 Ry
     estimated scf accuracy    <       0.00000650 Ry

     iteration #  4     ecut=    90.00 Ry     beta= 0.70
     Davidson diagonalization with overlap
     ethr =  1.02E-08,  avg # of iterations =  3.6

     total cpu time spent up to now is      529.5 secs

     total energy              =    -278.69685082 Ry
     estimated scf accuracy    <       0.00000502 Ry

     iteration #  5     ecut=    90.00 Ry     beta= 0.70
     Davidson diagonalization with overlap
     ethr =  7.84E-09,  avg # of iterations =  2.0

     total cpu time spent up to now is      538.2 secs

     total energy              =    -278.69685108 Ry
     estimated scf accuracy    <       0.00000075 Ry

     iteration #  6     ecut=    90.00 Ry     beta= 0.70
     Davidson diagonalization with overlap
     ethr =  1.18E-09,  avg # of iterations =  3.3

     total cpu time spent up to now is      549.7 secs

     total energy              =    -278.69685139 Ry
     estimated scf accuracy    <       0.00000032 Ry

     iteration #  7     ecut=    90.00 Ry     beta= 0.70
     Davidson diagonalization with overlap
     ethr =  4.95E-10,  avg # of iterations =  2.0

     total cpu time spent up to now is      558.1 secs

     total energy              =    -278.69685142 Ry
     estimated scf accuracy    <       0.00000002 Ry

     iteration #  8     ecut=    90.00 Ry     beta= 0.70
     Davidson diagonalization with overlap
     ethr =  3.72E-11,  avg # of iterations =  3.3

     total cpu time spent up to now is      569.6 secs

     End of self-consistent calculation

     Number of k-points >= 100: set verbosity='high' to print the bands.

     highest occupied level (ev):    -3.3183

!    total energy              =    -278.69685143 Ry
     estimated scf accuracy    <          2.2E-09 Ry

     The total energy is the sum of the following terms:
     one-electron contribution =    -227.03647455 Ry
     hartree contribution      =     135.49491674 Ry
     xc contribution           =     -70.75577332 Ry
     ewald contribution        =    -116.39952029 Ry

     convergence has been achieved in   8 iterations

     Forces acting on atoms (cartesian axes, Ry/au):

     atom    1 type  2   force =     0.00000000    0.00128891   -0.00100367
     atom    2 type  2   force =     0.00000000   -0.00132450   -0.00094382
     atom    3 type  2   force =     0.00000000    0.00128891   -0.00100367
     atom    4 type  2   force =     0.00000000   -0.00132450   -0.00094382
     atom    5 type  2   force =     0.00000000    0.00281797    0.00404327
     atom    6 type  2   force =     0.00000000   -0.00280030    0.00396648
     atom    7 type  2   force =     0.00000000    0.00281797    0.00404327
     atom    8 type  2   force =     0.00000000   -0.00280030    0.00396648
     atom    9 type  1   force =     0.00000000    0.00054957    0.00139796
     atom   10 type  1   force =     0.00000000   -0.00053156    0.00140044
     atom   11 type  1   force =     0.00000000    0.00054957    0.00139796
     atom   12 type  1   force =     0.00000000   -0.00053156    0.00140044
     atom   13 type  1   force =     0.00000000    0.00251902   -0.00222842
     atom   14 type  1   force =     0.00000000   -0.00253075   -0.00223317
     atom   15 type  1   force =     0.00000000    0.00251903   -0.00222841
     atom   16 type  1   force =     0.00000000   -0.00253075   -0.00223317
     atom   17 type  1   force =    -0.00220114   -0.00422141   -0.00109709
     atom   18 type  1   force =     0.00221610    0.00422722   -0.00110244
     atom   19 type  1   force =    -0.00221610    0.00422722   -0.00110244
     atom   20 type  1   force =     0.00220114   -0.00422141   -0.00109709
     atom   21 type  1   force =    -0.00220113   -0.00422141   -0.00109709
     atom   22 type  1   force =     0.00221610    0.00422722   -0.00110244
     atom   23 type  1   force =    -0.00221610    0.00422722   -0.00110244
     atom   24 type  1   force =     0.00220113   -0.00422141   -0.00109709

     Total force =     0.018768     Total SCF correction =     0.000032


     Computing stress (Cartesian axis) and pressure

          total   stress  (Ry/bohr**3)                   (kbar)     P=       21.15
   0.00010751   0.00000000   0.00000000           15.81        0.00        0.00
   0.00000000   0.00015074   0.00000003            0.00       22.18        0.00
   0.00000000   0.00000003   0.00017317            0.00        0.00       25.47

     Energy error            =      1.4E-03 Ry
     Gradient error          =      4.2E-03 Ry/Bohr

     number of scf cycles    =   5
     number of bfgs steps    =   4

     energy             old  =    -278.6954899745 Ry
     energy             new  =    -278.6968514259 Ry

     CASE: energy            _new < energy            _old

     new trust radius        =       0.0066259137 bohr
     new conv_thr            =       0.0000000042 Ry


ATOMIC_POSITIONS (crystal)
O                0.0000000000        0.6647890874        0.0591966343
O                0.0000000000        0.3352039079        0.5592011882
O                0.5000000000        0.1647890858        0.0591966365
O                0.5000000000        0.8352039089        0.5592011892
O                0.5000000000        0.8330028009        0.9335207583
O                0.5000000000        0.1669999539        0.4334950923
O                0.0000000000        0.3330028026        0.9335207558
O                0.0000000000        0.6669999525        0.4334950893
H                0.0000000000        0.6640529768        0.2006789490
H                0.0000000000        0.3359525129        0.7006826108
H                0.5000000000        0.1640529754        0.2006789512
H                0.5000000000        0.8359525137        0.7006826118
H                0.0000000000        0.5376766822        0.0171055335
H                0.0000000000        0.4623218603        0.5171028052
H                0.5000000000        0.0376766808        0.0171055347
H                0.5000000000        0.9623218614        0.5171028057
H                0.6857984438        0.7699787286        0.9837541996
H                0.3142075454        0.2300213805        0.4837540321
H                0.6857924546        0.2300213805        0.4837540321
H                0.3142015562        0.7699787286        0.9837541996
H                0.1857984426        0.2699787300        0.9837541980
H                0.8142075465        0.7300213792        0.4837540304
H                0.1857924535        0.7300213792        0.4837540304
H                0.8142015574        0.2699787300        0.9837541980



     Writing config-only to output data dir ./iceIh_vdw/iceIh_vdw.save/ :
     XML data file
     NEW-OLD atomic charge density approx. for the potential

     total cpu time spent up to now is      579.7 secs

     per-process dynamical memory:    55.2 Mb

     Self-consistent Calculation

     iteration #  1     ecut=    90.00 Ry     beta= 0.70
     Davidson diagonalization with overlap
     ethr =  1.00E-06,  avg # of iterations =  3.0

     Threshold (ethr) on eigenvalues was too large:
     Diagonalizing with lowered threshold

     Davidson diagonalization with overlap
     ethr =  5.30E-08,  avg # of iterations =  2.0

     total cpu time spent up to now is      598.4 secs

     total energy              =    -278.69724277 Ry
     estimated scf accuracy    <       0.00003749 Ry

     iteration #  2     ecut=    90.00 Ry     beta= 0.70
     Davidson diagonalization with overlap
     ethr =  5.86E-08,  avg # of iterations =  2.0

     total cpu time spent up to now is      607.4 secs

     total energy              =    -278.69724864 Ry
     estimated scf accuracy    <       0.00000273 Ry

     iteration #  3     ecut=    90.00 Ry     beta= 0.70
     Davidson diagonalization with overlap
     ethr =  4.27E-09,  avg # of iterations =  2.0

     total cpu time spent up to now is      616.8 secs

     total energy              =    -278.69724937 Ry
     estimated scf accuracy    <       0.00000032 Ry

     iteration #  4     ecut=    90.00 Ry     beta= 0.70
     Davidson diagonalization with overlap
     ethr =  4.93E-10,  avg # of iterations =  2.0

     total cpu time spent up to now is      624.8 secs

     total energy              =    -278.69724942 Ry
     estimated scf accuracy    <       0.00000002 Ry

     iteration #  5     ecut=    90.00 Ry     beta= 0.70
     Davidson diagonalization with overlap
     ethr =  3.49E-11,  avg # of iterations =  2.8

     total cpu time spent up to now is      634.9 secs

     total energy              =    -278.69724942 Ry
     estimated scf accuracy    <          6.0E-09 Ry

     iteration #  6     ecut=    90.00 Ry     beta= 0.70
     Davidson diagonalization with overlap
     ethr =  9.35E-12,  avg # of iterations =  2.7

     total cpu time spent up to now is      644.5 secs

     End of self-consistent calculation

     Number of k-points >= 100: set verbosity='high' to print the bands.

     highest occupied level (ev):    -3.3200

!    total energy              =    -278.69724942 Ry
     estimated scf accuracy    <          2.9E-10 Ry

     The total energy is the sum of the following terms:
     one-electron contribution =    -226.96819938 Ry
     hartree contribution      =     135.46451821 Ry
     xc contribution           =     -70.74834944 Ry
     ewald contribution        =    -116.44521881 Ry

     convergence has been achieved in   6 iterations

     Forces acting on atoms (cartesian axes, Ry/au):

     atom    1 type  2   force =     0.00000000    0.00109850    0.00045722
     atom    2 type  2   force =     0.00000000   -0.00111196    0.00048403
     atom    3 type  2   force =     0.00000000    0.00109850    0.00045722
     atom    4 type  2   force =     0.00000000   -0.00111196    0.00048403
     atom    5 type  2   force =     0.00000000    0.00045593    0.00429556
     atom    6 type  2   force =     0.00000000   -0.00041784    0.00421350
     atom    7 type  2   force =     0.00000000    0.00045593    0.00429556
     atom    8 type  2   force =     0.00000000   -0.00041784    0.00421351
     atom    9 type  1   force =     0.00000000    0.00036857   -0.00026376
     atom   10 type  1   force =     0.00000000   -0.00035333   -0.00022682
     atom   11 type  1   force =     0.00000000    0.00036857   -0.00026376
     atom   12 type  1   force =     0.00000000   -0.00035333   -0.00022682
     atom   13 type  1   force =     0.00000000    0.00243920   -0.00166077
     atom   14 type  1   force =     0.00000000   -0.00248521   -0.00165709
     atom   15 type  1   force =     0.00000000    0.00243920   -0.00166076
     atom   16 type  1   force =     0.00000000   -0.00248522   -0.00165709
     atom   17 type  1   force =    -0.00208113   -0.00286033   -0.00140391
     atom   18 type  1   force =     0.00209267    0.00286340   -0.00141703
     atom   19 type  1   force =    -0.00209267    0.00286340   -0.00141703
     atom   20 type  1   force =     0.00208113   -0.00286033   -0.00140391
     atom   21 type  1   force =    -0.00208113   -0.00286033   -0.00140391
     atom   22 type  1   force =     0.00209267    0.00286340   -0.00141703
     atom   23 type  1   force =    -0.00209267    0.00286340   -0.00141703
     atom   24 type  1   force =     0.00208113   -0.00286033   -0.00140391

     Total force =     0.015207     Total SCF correction =     0.000030


     Computing stress (Cartesian axis) and pressure

          total   stress  (Ry/bohr**3)                   (kbar)     P=       20.37
   0.00010736   0.00000000   0.00000000           15.79        0.00        0.00
   0.00000000   0.00014850   0.00000006            0.00       21.85        0.01
   0.00000000   0.00000006   0.00015947            0.00        0.01       23.46

     Energy error            =      4.0E-04 Ry
     Gradient error          =      4.3E-03 Ry/Bohr

     number of scf cycles    =   6
     number of bfgs steps    =   5

     energy             old  =    -278.6968514259 Ry
     energy             new  =    -278.6972494227 Ry

     CASE: energy            _new < energy            _old

     new trust radius        =       0.0072885051 bohr
     new conv_thr            =       0.0000000040 Ry


ATOMIC_POSITIONS (crystal)
O                0.0000000000        0.6649670037        0.0592379926
O                0.0000000000        0.3350235160        0.5592456669
O                0.5000000000        0.1649670024        0.0592379946
O                0.5000000000        0.8350235169        0.5592456677
O                0.5000000000        0.8332676728        0.9339806242
O                0.5000000000        0.1667390537        0.4339447406
O                0.0000000000        0.3332676742        0.9339806222
O                0.0000000000        0.6667390526        0.4339447380
H                0.0000000000        0.6641082870        0.2006982557
H                0.0000000000        0.3358991530        0.7007059850
H                0.5000000000        0.1641082855        0.2006982576
H                0.5000000000        0.8358991539        0.7007059858
H                0.0000000000        0.5379381997        0.0168480258
H                0.0000000000        0.4620563219        0.5168454992
H                0.5000000000        0.0379381984        0.0168480274
H                0.5000000000        0.9620563228        0.5168455000
H                0.6854711200        0.7695208105        0.9836240839
H                0.3145379764        0.2304795859        0.4836225384
H                0.6854620236        0.2304795859        0.4836225384
H                0.3145288800        0.7695208105        0.9836240839
H                0.1854711195        0.2695208118        0.9836240823
H                0.8145379769        0.7304795846        0.4836225366
H                0.1854620231        0.7304795846        0.4836225366
H                0.8145288805        0.2695208118        0.9836240823



     Writing config-only to output data dir ./iceIh_vdw/iceIh_vdw.save/ :
     XML data file
     NEW-OLD atomic charge density approx. for the potential

     total cpu time spent up to now is      653.5 secs

     per-process dynamical memory:    55.3 Mb

     Self-consistent Calculation

     iteration #  1     ecut=    90.00 Ry     beta= 0.70
     Davidson diagonalization with overlap
     ethr =  1.00E-06,  avg # of iterations =  3.0

     Threshold (ethr) on eigenvalues was too large:
     Diagonalizing with lowered threshold

     Davidson diagonalization with overlap
     ethr =  5.58E-08,  avg # of iterations =  2.0

     total cpu time spent up to now is      672.2 secs

     total energy              =    -278.69758116 Ry
     estimated scf accuracy    <       0.00004038 Ry

     iteration #  2     ecut=    90.00 Ry     beta= 0.70
     Davidson diagonalization with overlap
     ethr =  6.31E-08,  avg # of iterations =  2.0

     total cpu time spent up to now is      680.3 secs

     total energy              =    -278.69758654 Ry
     estimated scf accuracy    <       0.00000158 Ry

     iteration #  3     ecut=    90.00 Ry     beta= 0.70
     Davidson diagonalization with overlap
     ethr =  2.46E-09,  avg # of iterations =  3.0

     total cpu time spent up to now is      690.2 secs

     total energy              =    -278.69758693 Ry
     estimated scf accuracy    <       0.00000036 Ry

     iteration #  4     ecut=    90.00 Ry     beta= 0.70
     Davidson diagonalization with overlap
     ethr =  5.56E-10,  avg # of iterations =  3.3

     total cpu time spent up to now is      700.2 secs

     total energy              =    -278.69758702 Ry
     estimated scf accuracy    <       0.00000007 Ry

     iteration #  5     ecut=    90.00 Ry     beta= 0.70
     Davidson diagonalization with overlap
     ethr =  1.15E-10,  avg # of iterations =  2.2

     total cpu time spent up to now is      708.9 secs

     End of self-consistent calculation

     Number of k-points >= 100: set verbosity='high' to print the bands.

     highest occupied level (ev):    -3.3244

!    total energy              =    -278.69758703 Ry
     estimated scf accuracy    <          3.9E-09 Ry

     The total energy is the sum of the following terms:
     one-electron contribution =    -226.98183618 Ry
     hartree contribution      =     135.47055810 Ry
     xc contribution           =     -70.74914915 Ry
     ewald contribution        =    -116.43715980 Ry

     convergence has been achieved in   5 iterations

     Forces acting on atoms (cartesian axes, Ry/au):

     atom    1 type  2   force =     0.00000000    0.00101659    0.00004067
     atom    2 type  2   force =     0.00000000   -0.00104488    0.00009784
     atom    3 type  2   force =     0.00000000    0.00101659    0.00004067
     atom    4 type  2   force =     0.00000000   -0.00104488    0.00009784
     atom    5 type  2   force =     0.00000000   -0.00090830    0.00363101
     atom    6 type  2   force =     0.00000000    0.00095572    0.00355019
     atom    7 type  2   force =     0.00000000   -0.00090830    0.00363101
     atom    8 type  2   force =     0.00000000    0.00095573    0.00355019
     atom    9 type  1   force =     0.00000000    0.00009437   -0.00021501
     atom   10 type  1   force =     0.00000000   -0.00008079   -0.00018897
     atom   11 type  1   force =     0.00000000    0.00009437   -0.00021501
     atom   12 type  1   force =     0.00000000   -0.00008079   -0.00018897
     atom   13 type  1   force =     0.00000000    0.00209681   -0.00097008
     atom   14 type  1   force =     0.00000000   -0.00213902   -0.00097254
     atom   15 type  1   force =     0.00000000    0.00209681   -0.00097008
     atom   16 type  1   force =     0.00000000   -0.00213902   -0.00097254
     atom   17 type  1   force =    -0.00136951   -0.00190167   -0.00123154
     atom   18 type  1   force =     0.00137685    0.00190642   -0.00125502
     atom   19 type  1   force =    -0.00137685    0.00190642   -0.00125502
     atom   20 type  1   force =     0.00136951   -0.00190167   -0.00123154
     atom   21 type  1   force =    -0.00136951   -0.00190167   -0.00123154
     atom   22 type  1   force =     0.00137685    0.00190642   -0.00125502
     atom   23 type  1   force =    -0.00137685    0.00190642   -0.00125502
     atom   24 type  1   force =     0.00136951   -0.00190167   -0.00123154

     Total force =     0.011734     Total SCF correction =     0.000228


     Computing stress (Cartesian axis) and pressure

          total   stress  (Ry/bohr**3)                   (kbar)     P=       20.49
   0.00011344   0.00000000   0.00000000           16.69        0.00        0.00
   0.00000000   0.00014879   0.00000007            0.00       21.89        0.01
   0.00000000   0.00000007   0.00015573            0.00        0.01       22.91

     Energy error            =      3.4E-04 Ry
     Gradient error          =      3.6E-03 Ry/Bohr

     number of scf cycles    =   7
     number of bfgs steps    =   6

     energy             old  =    -278.6972494227 Ry
     energy             new  =    -278.6975870334 Ry

     CASE: energy            _new < energy            _old

     new trust radius        =       0.0109327576 bohr
     new conv_thr            =       0.0000000034 Ry


ATOMIC_POSITIONS (crystal)
O                0.0000000000        0.6652710953        0.0592464645
O                0.0000000000        0.3347128883        0.5592646590
O                0.5000000000        0.1652710943        0.0592464660
O                0.5000000000        0.8347128889        0.5592646597
O                0.5000000000        0.8335250552        0.9347439687
O                0.5000000000        0.1664904502        0.4346892971
O                0.0000000000        0.3335250560        0.9347439673
O                0.0000000000        0.6664904494        0.4346892950
H                0.0000000000        0.6641685561        0.2007358272
H                0.0000000000        0.3358422343        0.7007495259
H                0.5000000000        0.1641685545        0.2007358288
H                0.5000000000        0.8358422351        0.7007495266
H                0.0000000000        0.5383826301        0.0164880897
H                0.0000000000        0.4616047049        0.5164850529
H                0.5000000000        0.0383826291        0.0164880916
H                0.5000000000        0.9616047056        0.5164850540
H                0.6850239263        0.7688320722        0.9834021482
H                0.3149897306        0.2311691209        0.4833964263
H                0.6850102694        0.2311691209        0.4833964263
H                0.3149760737        0.7688320722        0.9834021482
H                0.1850239266        0.2688320734        0.9834021469
H                0.8149897303        0.7311691198        0.4833964246
H                0.1850102697        0.7311691198        0.4833964246
H                0.8149760734        0.2688320734        0.9834021469



     Writing config-only to output data dir ./iceIh_vdw/iceIh_vdw.save/ :
     XML data file
     NEW-OLD atomic charge density approx. for the potential

     total cpu time spent up to now is      718.0 secs

     per-process dynamical memory:    55.4 Mb

     Self-consistent Calculation

     iteration #  1     ecut=    90.00 Ry     beta= 0.70
     Davidson diagonalization with overlap
     ethr =  1.00E-06,  avg # of iterations =  4.0

     total cpu time spent up to now is      730.9 secs

     total energy              =    -278.69788694 Ry
     estimated scf accuracy    <       0.00009285 Ry

     iteration #  2     ecut=    90.00 Ry     beta= 0.70
     Davidson diagonalization with overlap
     ethr =  1.45E-07,  avg # of iterations =  2.0

     total cpu time spent up to now is      739.7 secs

     total energy              =    -278.69790019 Ry
     estimated scf accuracy    <       0.00001219 Ry

     iteration #  3     ecut=    90.00 Ry     beta= 0.70
     Davidson diagonalization with overlap
     ethr =  1.91E-08,  avg # of iterations =  3.0

     total cpu time spent up to now is      750.2 secs

     total energy              =    -278.69790335 Ry
     estimated scf accuracy    <       0.00000434 Ry

     iteration #  4     ecut=    90.00 Ry     beta= 0.70
     Davidson diagonalization with overlap
     ethr =  6.78E-09,  avg # of iterations =  2.3

     total cpu time spent up to now is      758.7 secs

     total energy              =    -278.69790410 Ry
     estimated scf accuracy    <       0.00000012 Ry

     iteration #  5     ecut=    90.00 Ry     beta= 0.70
     Davidson diagonalization with overlap
     ethr =  1.80E-10,  avg # of iterations =  5.7

     total cpu time spent up to now is      773.4 secs

     total energy              =    -278.69790414 Ry
     estimated scf accuracy    <       0.00000028 Ry

     iteration #  6     ecut=    90.00 Ry     beta= 0.70
     Davidson diagonalization with overlap
     ethr =  1.80E-10,  avg # of iterations =  3.3

     total cpu time spent up to now is      784.4 secs

     End of self-consistent calculation

     Number of k-points >= 100: set verbosity='high' to print the bands.

     highest occupied level (ev):    -3.3313

!    total energy              =    -278.69790420 Ry
     estimated scf accuracy    <          1.4E-09 Ry

     The total energy is the sum of the following terms:
     one-electron contribution =    -227.02208330 Ry
     hartree contribution      =     135.48871393 Ry
     xc contribution           =     -70.75256760 Ry
     ewald contribution        =    -116.41196723 Ry

     convergence has been achieved in   6 iterations

     Forces acting on atoms (cartesian axes, Ry/au):

     atom    1 type  2   force =     0.00000000    0.00092942    0.00028793
     atom    2 type  2   force =     0.00000000   -0.00091812    0.00033442
     atom    3 type  2   force =     0.00000000    0.00092942    0.00028793
     atom    4 type  2   force =     0.00000000   -0.00091812    0.00033442
     atom    5 type  2   force =     0.00000000   -0.00181861    0.00189864
     atom    6 type  2   force =     0.00000000    0.00186565    0.00181681
     atom    7 type  2   force =     0.00000000   -0.00181861    0.00189864
     atom    8 type  2   force =     0.00000000    0.00186565    0.00181681
     atom    9 type  1   force =     0.00000000   -0.00015700   -0.00071898
     atom   10 type  1   force =     0.00000000    0.00016711   -0.00065563
     atom   11 type  1   force =     0.00000000   -0.00015699   -0.00071898
     atom   12 type  1   force =     0.00000000    0.00016711   -0.00065563
     atom   13 type  1   force =     0.00000000    0.00133446   -0.00015355
     atom   14 type  1   force =     0.00000000   -0.00141342   -0.00015091
     atom   15 type  1   force =     0.00000000    0.00133446   -0.00015355
     atom   16 type  1   force =     0.00000000   -0.00141342   -0.00015091
     atom   17 type  1   force =    -0.00000471   -0.00092845   -0.00064793
     atom   18 type  1   force =    -0.00000039    0.00093371   -0.00068144
     atom   19 type  1   force =     0.00000039    0.00093371   -0.00068144
     atom   20 type  1   force =     0.00000471   -0.00092845   -0.00064793
     atom   21 type  1   force =    -0.00000471   -0.00092845   -0.00064793
     atom   22 type  1   force =    -0.00000039    0.00093371   -0.00068144
     atom   23 type  1   force =     0.00000039    0.00093371   -0.00068144
     atom   24 type  1   force =     0.00000471   -0.00092845   -0.00064793

     Total force =     0.007163     Total SCF correction =     0.000098


     Computing stress (Cartesian axis) and pressure

          total   stress  (Ry/bohr**3)                   (kbar)     P=       20.98
   0.00012783   0.00000000   0.00000000           18.80        0.00        0.00
   0.00000000   0.00015226   0.00000013            0.00       22.40        0.02
   0.00000000   0.00000013   0.00014768            0.00        0.02       21.72

     Energy error            =      3.2E-04 Ry
     Gradient error          =      1.9E-03 Ry/Bohr

     number of scf cycles    =   8
     number of bfgs steps    =   7

     energy             old  =    -278.6975870334 Ry
     energy             new  =    -278.6979042015 Ry

     CASE: energy            _new < energy            _old

     new trust radius        =       0.0089109702 bohr
     new conv_thr            =       0.0000000019 Ry


ATOMIC_POSITIONS (crystal)
O                0.0000000000        0.6655670640        0.0592707334
O                0.0000000000        0.3344144476        0.5593003382
O                0.5000000000        0.1655670634        0.0592707348
O                0.5000000000        0.8344144480        0.5593003387
O                0.5000000000        0.8335888773        0.9353923776
O                0.5000000000        0.1664366363        0.4353165798
O                0.0000000000        0.3335888777        0.9353923765
O                0.0000000000        0.6664366358        0.4353165781
H                0.0000000000        0.6641955650        0.2007024241
H                0.0000000000        0.3358184550        0.7007274283
H                0.5000000000        0.1641955636        0.2007024253
H                0.5000000000        0.8358184557        0.7007274288
H                0.0000000000        0.5387995053        0.0162291903
H                0.0000000000        0.4611749446        0.5162261756
H                0.5000000000        0.0387995043        0.0162291923
H                0.5000000000        0.9611749451        0.5162261770
H                0.6847914824        0.7682503811        0.9832146869
H                0.3152241230        0.2317518718        0.4832027063
H                0.6847758770        0.2317518718        0.4832027063
H                0.3152085176        0.7682503811        0.9832146869
H                0.1847914831        0.2682503821        0.9832146858
H                0.8152241224        0.7317518708        0.4832027046
H                0.1847758776        0.7317518708        0.4832027046
H                0.8152085169        0.2682503821        0.9832146858



     Writing config-only to output data dir ./iceIh_vdw/iceIh_vdw.save/ :
     XML data file
     NEW-OLD atomic charge density approx. for the potential

     total cpu time spent up to now is      793.5 secs

     per-process dynamical memory:    56.1 Mb

     Self-consistent Calculation

     iteration #  1     ecut=    90.00 Ry     beta= 0.70
     Davidson diagonalization with overlap
     ethr =  1.00E-06,  avg # of iterations =  3.0

     total cpu time spent up to now is      805.7 secs

     total energy              =    -278.69799635 Ry
     estimated scf accuracy    <       0.00006635 Ry

     iteration #  2     ecut=    90.00 Ry     beta= 0.70
     Davidson diagonalization with overlap
     ethr =  1.04E-07,  avg # of iterations =  2.4

     total cpu time spent up to now is      815.2 secs

     total energy              =    -278.69800739 Ry
     estimated scf accuracy    <       0.00001431 Ry

     iteration #  3     ecut=    90.00 Ry     beta= 0.70
     Davidson diagonalization with overlap
     ethr =  2.24E-08,  avg # of iterations =  3.0

     total cpu time spent up to now is      825.4 secs

     total energy              =    -278.69801127 Ry
     estimated scf accuracy    <       0.00000254 Ry

     iteration #  4     ecut=    90.00 Ry     beta= 0.70
     Davidson diagonalization with overlap
     ethr =  3.97E-09,  avg # of iterations =  2.0

     total cpu time spent up to now is      833.5 secs

     total energy              =    -278.69801158 Ry
     estimated scf accuracy    <       0.00000014 Ry

     iteration #  5     ecut=    90.00 Ry     beta= 0.70
     Davidson diagonalization with overlap
     ethr =  2.12E-10,  avg # of iterations =  5.0

     total cpu time spent up to now is      845.8 secs

     total energy              =    -278.69801163 Ry
     estimated scf accuracy    <       0.00000011 Ry

     iteration #  6     ecut=    90.00 Ry     beta= 0.70
     Davidson diagonalization with overlap
     ethr =  1.65E-10,  avg # of iterations =  3.0

     total cpu time spent up to now is      855.0 secs

     total energy              =    -278.69801165 Ry
     estimated scf accuracy    <          2.0E-09 Ry

     iteration #  7     ecut=    90.00 Ry     beta= 0.70
     Davidson diagonalization with overlap
     ethr =  3.18E-12,  avg # of iterations =  6.0

     total cpu time spent up to now is      869.8 secs

     total energy              =    -278.69801165 Ry
     estimated scf accuracy    <          6.7E-09 Ry

     iteration #  8     ecut=    90.00 Ry     beta= 0.70
     Davidson diagonalization with overlap
     ethr =  3.18E-12,  avg # of iterations =  3.9

     total cpu time spent up to now is      881.1 secs

     End of self-consistent calculation

     Number of k-points >= 100: set verbosity='high' to print the bands.

     highest occupied level (ev):    -3.3379

!    total energy              =    -278.69801165 Ry
     estimated scf accuracy    <          6.0E-11 Ry

     The total energy is the sum of the following terms:
     one-electron contribution =    -227.06953197 Ry
     hartree contribution      =     135.50983206 Ry
     xc contribution           =     -70.75695892 Ry
     ewald contribution        =    -116.38135282 Ry

     convergence has been achieved in   8 iterations

     Forces acting on atoms (cartesian axes, Ry/au):

     atom    1 type  2   force =     0.00000000    0.00055938   -0.00021491
     atom    2 type  2   force =     0.00000000   -0.00057792   -0.00010653
     atom    3 type  2   force =     0.00000000    0.00055937   -0.00021491
     atom    4 type  2   force =     0.00000000   -0.00057792   -0.00010653
     atom    5 type  2   force =     0.00000000   -0.00199649    0.00029434
     atom    6 type  2   force =     0.00000000    0.00202795    0.00022853
     atom    7 type  2   force =     0.00000000   -0.00199649    0.00029434
     atom    8 type  2   force =     0.00000000    0.00202795    0.00022853
     atom    9 type  1   force =     0.00000000   -0.00021257   -0.00028216
     atom   10 type  1   force =     0.00000000    0.00022954   -0.00022787
     atom   11 type  1   force =     0.00000000   -0.00021257   -0.00028216
     atom   12 type  1   force =     0.00000000    0.00022953   -0.00022787
     atom   13 type  1   force =     0.00000000    0.00062190    0.00036203
     atom   14 type  1   force =     0.00000000   -0.00065291    0.00035384
     atom   15 type  1   force =     0.00000000    0.00062190    0.00036203
     atom   16 type  1   force =     0.00000000   -0.00065291    0.00035383
     atom   17 type  1   force =     0.00080552   -0.00028105   -0.00008103
     atom   18 type  1   force =    -0.00080923    0.00028162   -0.00012260
     atom   19 type  1   force =     0.00080923    0.00028162   -0.00012260
     atom   20 type  1   force =    -0.00080552   -0.00028105   -0.00008103
     atom   21 type  1   force =     0.00080552   -0.00028105   -0.00008103
     atom   22 type  1   force =    -0.00080923    0.00028162   -0.00012260
     atom   23 type  1   force =     0.00080923    0.00028162   -0.00012260
     atom   24 type  1   force =    -0.00080552   -0.00028105   -0.00008103

     Total force =     0.005140     Total SCF correction =     0.000020


     Computing stress (Cartesian axis) and pressure

          total   stress  (Ry/bohr**3)                   (kbar)     P=       21.50
   0.00013942   0.00000000   0.00000000           20.51        0.00        0.00
   0.00000000   0.00015431   0.00000013            0.00       22.70        0.02
   0.00000000   0.00000013   0.00014470            0.00        0.02       21.29

     Energy error            =      1.1E-04 Ry
     Gradient error          =      2.0E-03 Ry/Bohr

     number of scf cycles    =   9
     number of bfgs steps    =   8

     energy             old  =    -278.6979042015 Ry
     energy             new  =    -278.6980116524 Ry

     CASE: energy            _new < energy            _old

     new trust radius        =       0.0026911441 bohr
     new conv_thr            =       0.0000000011 Ry


ATOMIC_POSITIONS (crystal)
O                0.0000000000        0.6656705785        0.0592468183
O                0.0000000000        0.3343086981        0.5592882483
O                0.5000000000        0.1656705778        0.0592468195
O                0.5000000000        0.8343086983        0.5592882489
O                0.5000000000        0.8334653629        0.9355444054
O                0.5000000000        0.1665644771        0.4354588341
O                0.0000000000        0.3334653633        0.9355444044
O                0.0000000000        0.6665644766        0.4354588324
H                0.0000000000        0.6641864396        0.2006849089
H                0.0000000000        0.3358296466        0.7007165627
H                0.5000000000        0.1641864384        0.2006849102
H                0.5000000000        0.8358296471        0.7007165632
H                0.0000000000        0.5389348845        0.0162019979
H                0.0000000000        0.4610349202        0.5161982190
H                0.5000000000        0.0389348838        0.0162019999
H                0.5000000000        0.9610349207        0.5161982202
H                0.6848540029        0.7680980243        0.9831733576
H                0.3151616090        0.2319044723        0.4831566618
H                0.6848383910        0.2319044723        0.4831566618
H                0.3151459971        0.7680980243        0.9831733576
H                0.1848540034        0.2680980252        0.9831733567
H                0.8151616085        0.7319044714        0.4831566602
H                0.1848383915        0.7319044714        0.4831566602
H                0.8151459966        0.2680980252        0.9831733567



     Writing config-only to output data dir ./iceIh_vdw/iceIh_vdw.save/ :
     XML data file
     NEW-OLD atomic charge density approx. for the potential

     total cpu time spent up to now is      890.5 secs

     per-process dynamical memory:    56.1 Mb

     Self-consistent Calculation

     iteration #  1     ecut=    90.00 Ry     beta= 0.70
     Davidson diagonalization with overlap
     ethr =  1.00E-06,  avg # of iterations =  2.0

     Threshold (ethr) on eigenvalues was too large:
     Diagonalizing with lowered threshold

     Davidson diagonalization with overlap
     ethr =  9.09E-09,  avg # of iterations =  3.0

     total cpu time spent up to now is      909.8 secs

     total energy              =    -278.69803673 Ry
     estimated scf accuracy    <       0.00000777 Ry

     iteration #  2     ecut=    90.00 Ry     beta= 0.70
     Davidson diagonalization with overlap
     ethr =  1.21E-08,  avg # of iterations =  3.0

     total cpu time spent up to now is      920.0 secs

     total energy              =    -278.69803792 Ry
     estimated scf accuracy    <       0.00000334 Ry

     iteration #  3     ecut=    90.00 Ry     beta= 0.70
     Davidson diagonalization with overlap
     ethr =  5.23E-09,  avg # of iterations =  3.0

     total cpu time spent up to now is      930.2 secs

     total energy              =    -278.69803882 Ry
     estimated scf accuracy    <       0.00000015 Ry

     iteration #  4     ecut=    90.00 Ry     beta= 0.70
     Davidson diagonalization with overlap
     ethr =  2.32E-10,  avg # of iterations =  2.0

     total cpu time spent up to now is      938.2 secs

     total energy              =    -278.69803882 Ry
     estimated scf accuracy    <       0.00000004 Ry

     iteration #  5     ecut=    90.00 Ry     beta= 0.70
     Davidson diagonalization with overlap
     ethr =  7.00E-11,  avg # of iterations =  3.0

     total cpu time spent up to now is      948.8 secs

     total energy              =    -278.69803884 Ry
     estimated scf accuracy    <          9.7E-09 Ry

     iteration #  6     ecut=    90.00 Ry     beta= 0.70
     Davidson diagonalization with overlap
     ethr =  1.52E-11,  avg # of iterations =  2.0

     total cpu time spent up to now is      956.9 secs

     End of self-consistent calculation

     Number of k-points >= 100: set verbosity='high' to print the bands.

     highest occupied level (ev):    -3.3398

!    total energy              =    -278.69803884 Ry
     estimated scf accuracy    <          7.4E-10 Ry

     The total energy is the sum of the following terms:
     one-electron contribution =    -227.08143317 Ry
     hartree contribution      =     135.51530100 Ry
     xc contribution           =     -70.75818785 Ry
     ewald contribution        =    -116.37371881 Ry

     convergence has been achieved in   6 iterations

     Forces acting on atoms (cartesian axes, Ry/au):

     atom    1 type  2   force =     0.00000000    0.00035223    0.00001429
     atom    2 type  2   force =     0.00000000   -0.00034633    0.00005904
     atom    3 type  2   force =     0.00000000    0.00035223    0.00001429
     atom    4 type  2   force =     0.00000000   -0.00034633    0.00005904
     atom    5 type  2   force =     0.00000000   -0.00149867   -0.00027751
     atom    6 type  2   force =     0.00000000    0.00151211   -0.00034665
     atom    7 type  2   force =     0.00000000   -0.00149867   -0.00027751
     atom    8 type  2   force =     0.00000000    0.00151211   -0.00034665
     atom    9 type  1   force =     0.00000000   -0.00006792   -0.00026542
     atom   10 type  1   force =     0.00000000    0.00009188   -0.00016438
     atom   11 type  1   force =     0.00000000   -0.00006792   -0.00026542
     atom   12 type  1   force =     0.00000000    0.00009188   -0.00016438
     atom   13 type  1   force =     0.00000000    0.00028681    0.00027579
     atom   14 type  1   force =     0.00000000   -0.00033418    0.00028425
     atom   15 type  1   force =     0.00000000    0.00028681    0.00027579
     atom   16 type  1   force =     0.00000000   -0.00033418    0.00028425
     atom   17 type  1   force =     0.00078559   -0.00031306    0.00012380
     atom   18 type  1   force =    -0.00078902    0.00031510    0.00008650
     atom   19 type  1   force =     0.00078902    0.00031510    0.00008650
     atom   20 type  1   force =    -0.00078559   -0.00031306    0.00012380
     atom   21 type  1   force =     0.00078559   -0.00031306    0.00012380
     atom   22 type  1   force =    -0.00078902    0.00031510    0.00008650
     atom   23 type  1   force =     0.00078902    0.00031510    0.00008650
     atom   24 type  1   force =    -0.00078559   -0.00031306    0.00012380

     Total force =     0.004089     Total SCF correction =     0.000028


     Computing stress (Cartesian axis) and pressure

          total   stress  (Ry/bohr**3)                   (kbar)     P=       21.64
   0.00014261   0.00000000   0.00000000           20.98        0.00        0.00
   0.00000000   0.00015518   0.00000017            0.00       22.83        0.03
   0.00000000   0.00000017   0.00014343            0.00        0.03       21.10

     Energy error            =      2.7E-05 Ry
     Gradient error          =      1.5E-03 Ry/Bohr

     number of scf cycles    =  10
     number of bfgs steps    =   9

     energy             old  =    -278.6980116524 Ry
     energy             new  =    -278.6980388372 Ry

     CASE: energy            _new < energy            _old

     new trust radius        =       0.0029602585 bohr
     new conv_thr            =       0.0000000010 Ry


ATOMIC_POSITIONS (crystal)
O                0.0000000000        0.6657608803        0.0592320233
O                0.0000000000        0.3342179784        0.5592838474
O                0.5000000000        0.1657608798        0.0592320247
O                0.5000000000        0.8342179786        0.5592838479
O                0.5000000000        0.8332686505        0.9356154746
O                0.5000000000        0.1667647708        0.4355173040
O                0.0000000000        0.3332686509        0.9356154736
O                0.0000000000        0.6667647704        0.4355173023
H                0.0000000000        0.6641779278        0.2006537802
H                0.0000000000        0.3358416059        0.7006995644
H                0.5000000000        0.1641779270        0.2006537814
H                0.5000000000        0.8358416062        0.7006995649
H                0.0000000000        0.5390463116        0.0162060030
H                0.0000000000        0.4609161088        0.5162028153
H                0.5000000000        0.0390463108        0.0162060046
H                0.5000000000        0.9609161092        0.5162028164
H                0.6849982446        0.7679709373        0.9831587760
H                0.3150168372        0.2320319460        0.4831358346
H                0.6849831628        0.2320319460        0.4831358346
H                0.3150017554        0.7679709373        0.9831587760
H                0.1849982447        0.2679709380        0.9831587752
H                0.8150168370        0.7320319452        0.4831358333
H                0.1849831630        0.7320319452        0.4831358333
H                0.8150017553        0.2679709380        0.9831587752



     Writing config-only to output data dir ./iceIh_vdw/iceIh_vdw.save/ :
     XML data file
     NEW-OLD atomic charge density approx. for the potential

     total cpu time spent up to now is      965.9 secs

     per-process dynamical memory:    56.1 Mb

     Self-consistent Calculation

     iteration #  1     ecut=    90.00 Ry     beta= 0.70
     Davidson diagonalization with overlap
     ethr =  1.00E-06,  avg # of iterations =  2.0

     Threshold (ethr) on eigenvalues was too large:
     Diagonalizing with lowered threshold

     Davidson diagonalization with overlap
     ethr =  9.41E-09,  avg # of iterations =  3.0

     total cpu time spent up to now is      985.2 secs

     total energy              =    -278.69806183 Ry
     estimated scf accuracy    <       0.00000744 Ry

     iteration #  2     ecut=    90.00 Ry     beta= 0.70
     Davidson diagonalization with overlap
     ethr =  1.16E-08,  avg # of iterations =  3.0

     total cpu time spent up to now is      995.7 secs

     total energy              =    -278.69806295 Ry
     estimated scf accuracy    <       0.00000368 Ry

     iteration #  3     ecut=    90.00 Ry     beta= 0.70
     Davidson diagonalization with overlap
     ethr =  5.75E-09,  avg # of iterations =  3.0

     total cpu time spent up to now is     1005.6 secs

     total energy              =    -278.69806392 Ry
     estimated scf accuracy    <       0.00000013 Ry

     iteration #  4     ecut=    90.00 Ry     beta= 0.70
     Davidson diagonalization with overlap
     ethr =  2.07E-10,  avg # of iterations =  2.8

     total cpu time spent up to now is     1014.8 secs

     total energy              =    -278.69806391 Ry
     estimated scf accuracy    <       0.00000005 Ry

     iteration #  5     ecut=    90.00 Ry     beta= 0.70
     Davidson diagonalization with overlap
     ethr =  8.40E-11,  avg # of iterations =  3.3

     total cpu time spent up to now is     1026.0 secs

     total energy              =    -278.69806393 Ry
     estimated scf accuracy    <       0.00000001 Ry

     iteration #  6     ecut=    90.00 Ry     beta= 0.70
     Davidson diagonalization with overlap
     ethr =  2.31E-11,  avg # of iterations =  2.3

     total cpu time spent up to now is     1034.4 secs

     End of self-consistent calculation

     Number of k-points >= 100: set verbosity='high' to print the bands.

     highest occupied level (ev):    -3.3413

!    total energy              =    -278.69806394 Ry
     estimated scf accuracy    <          5.6E-10 Ry

     The total energy is the sum of the following terms:
     one-electron contribution =    -227.08540883 Ry
     hartree contribution      =     135.51716862 Ry
     xc contribution           =     -70.75868598 Ry
     ewald contribution        =    -116.37113774 Ry

     convergence has been achieved in   6 iterations

     Forces acting on atoms (cartesian axes, Ry/au):

     atom    1 type  2   force =     0.00000000    0.00005015   -0.00002929
     atom    2 type  2   force =     0.00000000   -0.00007367    0.00005630
     atom    3 type  2   force =     0.00000000    0.00005015   -0.00002929
     atom    4 type  2   force =     0.00000000   -0.00007367    0.00005630
     atom    5 type  2   force =     0.00000000   -0.00095693   -0.00058745
     atom    6 type  2   force =     0.00000000    0.00097260   -0.00064683
     atom    7 type  2   force =     0.00000000   -0.00095693   -0.00058745
     atom    8 type  2   force =     0.00000000    0.00097260   -0.00064683
     atom    9 type  1   force =     0.00000000    0.00011460    0.00003870
     atom   10 type  1   force =     0.00000000   -0.00008545    0.00010028
     atom   11 type  1   force =     0.00000000    0.00011461    0.00003870
     atom   12 type  1   force =     0.00000000   -0.00008545    0.00010028
     atom   13 type  1   force =     0.00000000    0.00001343    0.00011548
     atom   14 type  1   force =     0.00000000   -0.00002805    0.00012428
     atom   15 type  1   force =     0.00000000    0.00001343    0.00011548
     atom   16 type  1   force =     0.00000000   -0.00002805    0.00012428
     atom   17 type  1   force =     0.00045995   -0.00035776    0.00022623
     atom   18 type  1   force =    -0.00045190    0.00035441    0.00018804
     atom   19 type  1   force =     0.00045190    0.00035441    0.00018804
     atom   20 type  1   force =    -0.00045995   -0.00035776    0.00022623
     atom   21 type  1   force =     0.00045995   -0.00035776    0.00022623
     atom   22 type  1   force =    -0.00045190    0.00035441    0.00018804
     atom   23 type  1   force =     0.00045190    0.00035441    0.00018804
     atom   24 type  1   force =    -0.00045995   -0.00035776    0.00022623

     Total force =     0.002902     Total SCF correction =     0.000028


     Computing stress (Cartesian axis) and pressure

          total   stress  (Ry/bohr**3)                   (kbar)     P=       21.67
   0.00014349   0.00000000   0.00000000           21.11        0.00        0.00
   0.00000000   0.00015476   0.00000016            0.00       22.77        0.02
   0.00000000   0.00000016   0.00014360            0.00        0.02       21.12

     Energy error            =      2.5E-05 Ry
     Gradient error          =      9.7E-04 Ry/Bohr

     bfgs converged in  11 scf cycles and  10 bfgs steps
     (criteria: energy <  1.0E-04 Ry, force <  1.0E-03 Ry/Bohr)

     End of BFGS Geometry Optimization

     Final energy             =    -278.6980639350 Ry

     File ./iceIh_vdw/iceIh_vdw.bfgs deleted, as requested
Begin final coordinates

ATOMIC_POSITIONS (crystal)
O                0.0000000000        0.6657608803        0.0592320233
O                0.0000000000        0.3342179784        0.5592838474
O                0.5000000000        0.1657608798        0.0592320247
O                0.5000000000        0.8342179786        0.5592838479
O                0.5000000000        0.8332686505        0.9356154746
O                0.5000000000        0.1667647708        0.4355173040
O                0.0000000000        0.3332686509        0.9356154736
O                0.0000000000        0.6667647704        0.4355173023
H                0.0000000000        0.6641779278        0.2006537802
H                0.0000000000        0.3358416059        0.7006995644
H                0.5000000000        0.1641779270        0.2006537814
H                0.5000000000        0.8358416062        0.7006995649
H                0.0000000000        0.5390463116        0.0162060030
H                0.0000000000        0.4609161088        0.5162028153
H                0.5000000000        0.0390463108        0.0162060046
H                0.5000000000        0.9609161092        0.5162028164
H                0.6849982446        0.7679709373        0.9831587760
H                0.3150168372        0.2320319460        0.4831358346
H                0.6849831628        0.2320319460        0.4831358346
H                0.3150017554        0.7679709373        0.9831587760
H                0.1849982447        0.2679709380        0.9831587752
H                0.8150168370        0.7320319452        0.4831358333
H                0.1849831630        0.7320319452        0.4831358333
H                0.8150017553        0.2679709380        0.9831587752
End final coordinates



     Writing all to output data dir ./iceIh_vdw/iceIh_vdw.save/ :
     XML data file, charge density, pseudopotentials, collected wavefunctions

     init_run     :      5.95s CPU      6.05s WALL (       1 calls)
     electrons    :    921.26s CPU    937.39s WALL (      11 calls)
     update_pot   :      0.64s CPU      0.71s WALL (      10 calls)
     forces       :      5.91s CPU      5.93s WALL (      11 calls)
     stress       :     89.01s CPU     89.12s WALL (      11 calls)

     Called by init_run:
     wfcinit      :      4.03s CPU      4.07s WALL (       1 calls)
     potinit      :      1.59s CPU      1.62s WALL (       1 calls)
     hinit0       :      0.25s CPU      0.26s WALL (       1 calls)

     Called by electrons:
     c_bands      :    820.88s CPU    833.86s WALL (      89 calls)
     sum_band     :     94.74s CPU     95.69s WALL (      89 calls)
     v_of_rho     :      7.24s CPU      7.89s WALL (      96 calls)
     newd         :      0.20s CPU      0.25s WALL (      96 calls)
     mix_rho      :      0.15s CPU      0.16s WALL (      89 calls)
     vdW_kernel   :      1.51s CPU      1.52s WALL (       1 calls)

     Called by c_bands:
     init_us_2    :     11.08s CPU     11.50s WALL (   23115 calls)
     cegterg      :    793.92s CPU    801.18s WALL (   10235 calls)

     Called by *egterg:
     cdiaghg      :     70.98s CPU     71.27s WALL (   40618 calls)
     h_psi        :    597.20s CPU    603.65s WALL (   42343 calls)
     s_psi        :     23.62s CPU     23.78s WALL (   42343 calls)
     g_psi        :      2.07s CPU      2.08s WALL (   31993 calls)

     Called by h_psi:
     h_psi:calbec :     37.90s CPU     38.24s WALL (   42343 calls)
     vloc_psi     :    530.41s CPU    536.21s WALL (   42343 calls)
     add_vuspsi   :     25.08s CPU     25.29s WALL (   42343 calls)

     General routines
     calbec       :     51.74s CPU     52.23s WALL (   58903 calls)
     fft          :      3.37s CPU      3.45s WALL (    6442 calls)
     ffts         :      0.05s CPU      0.05s WALL (      89 calls)
     fftw         :    555.23s CPU    561.09s WALL ( 2473006 calls)

     Parallel routines

     PWSCF        :  17m 6.25s CPU  17m33.41s WALL


   This run was terminated on:  20:53:10   1Apr2026            

=------------------------------------------------------------------------------=
   JOB DONE.
=------------------------------------------------------------------------------=
