
     Program PWSCF v.7.3.1 starts on 26Mar2026 at 16:28:59 

     This program is part of the open-source Quantum ESPRESSO suite
     for quantum simulation of materials; please cite
         "P. Giannozzi et al., J. Phys.:Condens. Matter 21 395502 (2009);
         "P. Giannozzi et al., J. Phys.:Condens. Matter 29 465901 (2017);
         "P. Giannozzi et al., J. Chem. Phys. 152 154105 (2020);
          URL http://www.quantum-espresso.org", 
     in publications or presentations arising from this work. More details at
     http://www.quantum-espresso.org/quote

     Parallel version (MPI), running on   128 processors

     MPI processes distributed on     1 nodes
     237316 MiB available memory on the printing compute node when the environment starts

     Waiting for input...
     Reading input from standard input

     Current dimensions of program PWSCF are:
     Max number of different atomic species (ntypx) = 10
     Max number of k-points (npk) =  40000
     Max angular momentum in pseudopotentials (lmaxx) =  4

     IMPORTANT: XC functional enforced from input :
     Exchange-correlation= VDW-DF2
                           (   1   4  13   0   2   0   0)
     Any further DFT definition will be discarded
     Please, verify this is what you really want

     Found identity + ( -0.5000 -0.5000 -0.0000) symmetry
     This is a supercell, fractional translations are disabled

     K-points division:     npool     =       4
     R & G space division:  proc/nbgrp/npool/nimage =      32
     Subspace diagonalization in iterative solution of the eigenvalue problem:
     a serial algorithm will be used


     Parallelization info
     --------------------
     sticks:   dense  smooth     PW     G-vecs:    dense   smooth      PW
     Min         105     105     29                 5709     5709     827
     Max         106     106     30                 5714     5714     831
     Sum        3367    3367    935               182719   182719   26537

     Using Slab Decomposition



     bravais-lattice index     =            8
     lattice parameter (alat)  =       8.2523  a.u.
     unit-cell volume          =    1584.4768 (a.u.)^3
     number of atoms/cell      =           24
     number of atomic types    =            2
     number of electrons       =        64.00
     number of Kohn-Sham states=           32
     kinetic-energy cutoff     =      90.0000  Ry
     charge density cutoff     =     360.0000  Ry
     scf convergence threshold =      1.0E-07
     mixing beta               =       0.7000
     number of iterations used =            8  plain     mixing
     Exchange-correlation= VDW-DF2
                           (   1   4  13   0   2   0   0)

     celldm(1)=   8.252320  celldm(2)=   1.732119  celldm(3)=   1.627721
     celldm(4)=   0.000000  celldm(5)=   0.000000  celldm(6)=   0.000000

     crystal axes: (cart. coord. in units of alat)
               a(1) = (   1.000000   0.000000   0.000000 )  
               a(2) = (   0.000000   1.732119   0.000000 )  
               a(3) = (   0.000000   0.000000   1.627721 )  

     reciprocal axes: (cart. coord. in units 2 pi/alat)
               b(1) = (  1.000000  0.000000  0.000000 )  
               b(2) = (  0.000000  0.577328  0.000000 )  
               b(3) = (  0.000000  0.000000  0.614356 )  


     PseudoPot. # 1 for H  read from file:
     ./H.pbe-van_ak.UPF
     MD5 check sum: 077eb6d537518a38cb46c6de387227b7
     Pseudo is Ultrasoft, Zval =  1.0
     Generated by new atomic code, or converted to UPF format
     Using radial grid of  615 points,  1 beta functions with: 
                l(1) =   0
     Q(r) pseudized with  8 coefficients,  rinner =    0.800

     PseudoPot. # 2 for O  read from file:
     ./O.pbe-van_ak.UPF
     MD5 check sum: 78c19812648e8988a0fe644b0f25305e
     Pseudo is Ultrasoft, Zval =  6.0
     Generated by new atomic code, or converted to UPF format
     Using radial grid of  737 points,  4 beta functions with: 
                l(1) =   0
                l(2) =   0
                l(3) =   1
                l(4) =   1
     Q(r) pseudized with  8 coefficients,  rinner =    0.800   0.800   0.800


     atomic species   valence    mass     pseudopotential
     H                 1.00     1.00800     H ( 1.00)
     O                 6.00    16.00000     O ( 1.00)

      2 Sym. Ops. (no inversion) found



   Cartesian axes

     site n.     atom                  positions (alat units)
         1        O      tau(   1) = (   0.0000000   1.1505053   0.0983911  )
         2        O      tau(   2) = (   0.0000000   0.5816137   0.9122516  )
         3        O      tau(   3) = (   0.5000000   0.2844458   0.0983911  )
         4        O      tau(   4) = (   0.5000000   1.4476733   0.9122516  )
         5        O      tau(   5) = (   0.5000000   1.4413210   1.5245781  )
         6        O      tau(   6) = (   0.5000000   0.2907980   0.7107175  )
         7        O      tau(   7) = (   0.0000000   0.5752615   1.5245780  )
         8        O      tau(   8) = (   0.0000000   1.1568575   0.7107175  )
         9        H      tau(   9) = (   0.0000000   1.1476935   0.3199225  )
        10        H      tau(  10) = (   0.0000000   0.5844255   1.1337830  )
        11        H      tau(  11) = (   0.5000000   0.2816340   0.3199225  )
        12        H      tau(  12) = (   0.5000000   1.4504851   1.1337830  )
        13        H      tau(  13) = (   0.0000000   0.9389577   0.0320281  )
        14        H      tau(  14) = (   0.0000000   0.7931613   0.8458886  )
        15        H      tau(  15) = (   0.5000000   0.0728982   0.0320281  )
        16        H      tau(  16) = (   0.5000000   1.6592209   0.8458886  )
        17        H      tau(  17) = (   0.6777387   1.3318248   1.5989889  )
        18        H      tau(  18) = (   0.3222613   0.4002942   0.7851284  )
        19        H      tau(  19) = (   0.6777387   0.4002942   0.7851284  )
        20        H      tau(  20) = (   0.3222613   1.3318248   1.5989889  )
        21        H      tau(  21) = (   0.1777387   0.4657653   1.5989889  )
        22        H      tau(  22) = (   0.8222613   1.2663538   0.7851284  )
        23        H      tau(  23) = (   0.1777387   1.2663538   0.7851284  )
        24        H      tau(  24) = (   0.8222613   0.4657653   1.5989889  )

     number of k points=   460

     Number of k-points >= 100: set verbosity='high' to print them.

     Dense  grid:   182719 G-vectors     FFT dimensions: (  50,  90,  81)

     Estimated max dynamical RAM per process >      47.92 MB

     Estimated total dynamical RAM >       5.86 GB

     Initial potential from superposition of free atoms

     starting charge      63.9998, renormalised to      64.0000


     %%%%%%%%%%%%%%%%%%%%%%%%%%%%%%%%%%%%%%%%%%%%%%%%%%%%%%%%%%%%%%%%%%%%%%%%
     %                                                                      %
     % You are using vdW-DF, which was implemented by the Thonhauser group. %
     % Please cite the following two papers that made this development      %
     % possible and the two reviews that describe the various versions:     %
     %                                                                      %
     %   T. Thonhauser et al., PRL 115, 136402 (2015).                      %
     %   T. Thonhauser et al., PRB 76, 125112 (2007).                       %
     %   K. Berland et al., Rep. Prog. Phys. 78, 066501 (2015).             %
     %   D.C. Langreth et al., J. Phys.: Condens. Matter 21, 084203 (2009). %
     %                                                                      %
     % If you are calculating stress with vdW-DF, please also cite:         %
     %                                                                      %
     %   R. Sabatini et al., J. Phys.: Condens. Matter 24, 424209 (2012).   %
     %                                                                      %
     %%%%%%%%%%%%%%%%%%%%%%%%%%%%%%%%%%%%%%%%%%%%%%%%%%%%%%%%%%%%%%%%%%%%%%%%

     %%%%%%%%%%%%%%%%%%%%%%%%%%%%%%%%%%%%%%%%%%%%%%%%%%%%%%%%%%%%%%%%%%%%%%%%
     %                                                                      %
     %  vdW-DF NEWS:                                                        %
     %                                                                      %
     %  * vdW-DF3 is now available. DOI: 10.1021/acs.jctc.0c00471           %
     %    use with input_dft = 'vdW-DF3-opt1' or 'vdW-DF3-opt2'             %
     %                                                                      %
     %  * Unscreened and range-separated hybrid vdW-DF-cx functionals       %
     %    DOI: 10.1063/1.4986522 and 10.1088/1361-648X/ac2ad2               %
     %    use with input_dft = 'vdW-DF-cx0'    and 'vdW-DF-ahcx'            %
     %  * Unscreened and range-separated hybrid vdW-DF2-b86r functionals    %
     %    DOI: 10.1063/1.4986522 and DOI: 10.1103/PhysRevX.12.041003        %
     %    use with input_dft = 'vdW-DF2-br0' and 'vdW-DF2-ahbr'             %
     %                                                                      %
     %%%%%%%%%%%%%%%%%%%%%%%%%%%%%%%%%%%%%%%%%%%%%%%%%%%%%%%%%%%%%%%%%%%%%%%%


     Starting wfcs are   48 randomized atomic wfcs

     total cpu time spent up to now is        6.3 secs

     per-process dynamical memory:    55.1 Mb

     Self-consistent Calculation

     iteration #  1     ecut=    90.00 Ry     beta= 0.70
     Davidson diagonalization with overlap
     ethr =  1.00E-02,  avg # of iterations =  2.0

     total cpu time spent up to now is       15.1 secs

     total energy              =    -277.23450831 Ry
     estimated scf accuracy    <       3.32905586 Ry

     iteration #  2     ecut=    90.00 Ry     beta= 0.70
     Davidson diagonalization with overlap
     ethr =  5.20E-03,  avg # of iterations =  3.0

     total cpu time spent up to now is       26.8 secs

     total energy              =    -278.31115494 Ry
     estimated scf accuracy    <       2.10319329 Ry

     iteration #  3     ecut=    90.00 Ry     beta= 0.70
     Davidson diagonalization with overlap
     ethr =  3.29E-03,  avg # of iterations =  2.0

     total cpu time spent up to now is       35.8 secs

     total energy              =    -278.60997566 Ry
     estimated scf accuracy    <       0.07810743 Ry

     iteration #  4     ecut=    90.00 Ry     beta= 0.70
     Davidson diagonalization with overlap
     ethr =  1.22E-04,  avg # of iterations =  4.0

     total cpu time spent up to now is       49.3 secs

     total energy              =    -278.67025203 Ry
     estimated scf accuracy    <       0.10493747 Ry

     iteration #  5     ecut=    90.00 Ry     beta= 0.70
     Davidson diagonalization with overlap
     ethr =  1.22E-04,  avg # of iterations =  2.0

     total cpu time spent up to now is       57.3 secs

     total energy              =    -278.67080053 Ry
     estimated scf accuracy    <       0.01446289 Ry

     iteration #  6     ecut=    90.00 Ry     beta= 0.70
     Davidson diagonalization with overlap
     ethr =  2.26E-05,  avg # of iterations =  2.5

     total cpu time spent up to now is       67.3 secs

     total energy              =    -278.67654425 Ry
     estimated scf accuracy    <       0.00031394 Ry

     iteration #  7     ecut=    90.00 Ry     beta= 0.70
     Davidson diagonalization with overlap
     ethr =  4.91E-07,  avg # of iterations =  4.9

     total cpu time spent up to now is       80.7 secs

     total energy              =    -278.67671201 Ry
     estimated scf accuracy    <       0.00289641 Ry

     iteration #  8     ecut=    90.00 Ry     beta= 0.70
     Davidson diagonalization with overlap
     ethr =  4.91E-07,  avg # of iterations =  1.6

     total cpu time spent up to now is       88.0 secs

     total energy              =    -278.67597368 Ry
     estimated scf accuracy    <       0.00191351 Ry

     iteration #  9     ecut=    90.00 Ry     beta= 0.70
     Davidson diagonalization with overlap
     ethr =  4.91E-07,  avg # of iterations =  3.0

     total cpu time spent up to now is       99.7 secs

     total energy              =    -278.67621085 Ry
     estimated scf accuracy    <       0.00009374 Ry

     iteration # 10     ecut=    90.00 Ry     beta= 0.70
     Davidson diagonalization with overlap
     ethr =  1.46E-07,  avg # of iterations =  1.0

     total cpu time spent up to now is      106.3 secs

     total energy              =    -278.67618465 Ry
     estimated scf accuracy    <       0.00008327 Ry

     iteration # 11     ecut=    90.00 Ry     beta= 0.70
     Davidson diagonalization with overlap
     ethr =  1.30E-07,  avg # of iterations =  2.0

     total cpu time spent up to now is      115.1 secs

     total energy              =    -278.67619287 Ry
     estimated scf accuracy    <       0.00000965 Ry

     iteration # 12     ecut=    90.00 Ry     beta= 0.70
     Davidson diagonalization with overlap
     ethr =  1.51E-08,  avg # of iterations =  4.0

     total cpu time spent up to now is      128.4 secs

     total energy              =    -278.67619957 Ry
     estimated scf accuracy    <       0.00001285 Ry

     iteration # 13     ecut=    90.00 Ry     beta= 0.70
     Davidson diagonalization with overlap
     ethr =  1.51E-08,  avg # of iterations =  1.0

     total cpu time spent up to now is      134.9 secs

     total energy              =    -278.67619943 Ry
     estimated scf accuracy    <       0.00000377 Ry

     iteration # 14     ecut=    90.00 Ry     beta= 0.70
     Davidson diagonalization with overlap
     ethr =  5.89E-09,  avg # of iterations =  1.0

     total cpu time spent up to now is      141.5 secs

     total energy              =    -278.67619967 Ry
     estimated scf accuracy    <       0.00000174 Ry

     iteration # 15     ecut=    90.00 Ry     beta= 0.70
     Davidson diagonalization with overlap
     ethr =  2.72E-09,  avg # of iterations =  1.0

     total cpu time spent up to now is      148.1 secs

     total energy              =    -278.67619963 Ry
     estimated scf accuracy    <       0.00000185 Ry

     iteration # 16     ecut=    90.00 Ry     beta= 0.70
     Davidson diagonalization with overlap
     ethr =  2.72E-09,  avg # of iterations =  1.0

     total cpu time spent up to now is      154.6 secs

     total energy              =    -278.67619941 Ry
     estimated scf accuracy    <       0.00000147 Ry

     iteration # 17     ecut=    90.00 Ry     beta= 0.70
     Davidson diagonalization with overlap
     ethr =  2.30E-09,  avg # of iterations =  1.0

     total cpu time spent up to now is      161.2 secs

     total energy              =    -278.67619921 Ry
     estimated scf accuracy    <       0.00000076 Ry

     iteration # 18     ecut=    90.00 Ry     beta= 0.70
     Davidson diagonalization with overlap
     ethr =  1.18E-09,  avg # of iterations =  1.0

     total cpu time spent up to now is      167.7 secs

     total energy              =    -278.67619920 Ry
     estimated scf accuracy    <       0.00000014 Ry

     iteration # 19     ecut=    90.00 Ry     beta= 0.70
     Davidson diagonalization with overlap
     ethr =  2.25E-10,  avg # of iterations =  2.0

     total cpu time spent up to now is      176.6 secs

     End of self-consistent calculation

     Number of k-points >= 100: set verbosity='high' to print the bands.

     highest occupied level (ev):    -3.5101

!    total energy              =    -278.67619922 Ry
     estimated scf accuracy    <          6.7E-09 Ry

     The total energy is the sum of the following terms:
     one-electron contribution =    -232.11195974 Ry
     hartree contribution      =     137.70023499 Ry
     xc contribution           =     -71.13785847 Ry
     ewald contribution        =    -113.12661600 Ry

     convergence has been achieved in  19 iterations

     Forces acting on atoms (cartesian axes, Ry/au):

     atom    1 type  2   force =     0.00000000    0.04420407   -0.03235792
     atom    2 type  2   force =     0.00000000   -0.04418763   -0.03234441
     atom    3 type  2   force =     0.00000000    0.04420403   -0.03235784
     atom    4 type  2   force =     0.00000000   -0.04418755   -0.03234446
     atom    5 type  2   force =     0.00000000    0.04394941   -0.03072804
     atom    6 type  2   force =     0.00000000   -0.04388874   -0.03100785
     atom    7 type  2   force =     0.00000000    0.04394931   -0.03072798
     atom    8 type  2   force =     0.00000000   -0.04388848   -0.03100769
     atom    9 type  1   force =     0.00000000    0.00233797    0.04993032
     atom   10 type  1   force =     0.00000000   -0.00236131    0.05003042
     atom   11 type  1   force =     0.00000000    0.00233796    0.04993031
     atom   12 type  1   force =     0.00000000   -0.00236131    0.05003045
     atom   13 type  1   force =     0.00000000   -0.04619186   -0.01766983
     atom   14 type  1   force =     0.00000000    0.04617127   -0.01765896
     atom   15 type  1   force =     0.00000000   -0.04619189   -0.01766984
     atom   16 type  1   force =     0.00000000    0.04617124   -0.01765896
     atom   17 type  1   force =     0.04166555   -0.02292640    0.01546115
     atom   18 type  1   force =    -0.04164873    0.02290976    0.01544189
     atom   19 type  1   force =     0.04164873    0.02290976    0.01544189
     atom   20 type  1   force =    -0.04166555   -0.02292640    0.01546115
     atom   21 type  1   force =     0.04166558   -0.02292643    0.01546117
     atom   22 type  1   force =    -0.04164878    0.02290982    0.01544192
     atom   23 type  1   force =     0.04164878    0.02290982    0.01544192
     atom   24 type  1   force =    -0.04166558   -0.02292643    0.01546117

     Total force =     0.251623     Total SCF correction =     0.000044


     Computing stress (Cartesian axis) and pressure

          total   stress  (Ry/bohr**3)                   (kbar)     P=       69.71
   0.00046405   0.00000000   0.00000000           68.26        0.00        0.00
   0.00000000   0.00048962   0.00000002            0.00       72.03        0.00
   0.00000000   0.00000002   0.00046789            0.00        0.00       68.83


     Writing all to output data dir ./iceIh/iceIh.save/ :
     XML data file, charge density, pseudopotentials, collected wavefunctions

     init_run     :      5.85s CPU      5.97s WALL (       1 calls)
     electrons    :    167.63s CPU    170.40s WALL (       1 calls)
     forces       :      0.53s CPU      0.55s WALL (       1 calls)
     stress       :      8.17s CPU      8.19s WALL (       1 calls)

     Called by init_run:
     wfcinit      :      3.93s CPU      4.01s WALL (       1 calls)
     potinit      :      1.58s CPU      1.62s WALL (       1 calls)
     hinit0       :      0.25s CPU      0.26s WALL (       1 calls)

     Called by electrons:
     c_bands      :    145.89s CPU    148.22s WALL (      19 calls)
     sum_band     :     20.45s CPU     20.68s WALL (      19 calls)
     v_of_rho     :      2.71s CPU      2.87s WALL (      20 calls)
     newd         :      0.04s CPU      0.06s WALL (      20 calls)
     mix_rho      :      0.06s CPU      0.06s WALL (      19 calls)
     vdW_kernel   :      1.51s CPU      1.52s WALL (       1 calls)

     Called by c_bands:
     init_us_2    :      2.36s CPU      2.43s WALL (    4715 calls)
     cegterg      :    140.71s CPU    142.16s WALL (    2185 calls)

     Called by *egterg:
     cdiaghg      :     11.37s CPU     11.45s WALL (    6864 calls)
     h_psi        :    111.31s CPU    112.62s WALL (    6979 calls)
     s_psi        :      4.19s CPU      4.22s WALL (    6979 calls)
     g_psi        :      0.36s CPU      0.37s WALL (    4679 calls)

     Called by h_psi:
     h_psi:calbec :      6.71s CPU      6.77s WALL (    6979 calls)
     vloc_psi     :     99.29s CPU    100.48s WALL (    6979 calls)
     add_vuspsi   :      4.42s CPU      4.46s WALL (    6979 calls)

     General routines
     calbec       :      9.01s CPU      9.11s WALL (    9739 calls)
     fft          :      0.86s CPU      0.87s WALL (    1272 calls)
     ffts         :      0.01s CPU      0.01s WALL (      19 calls)
     fftw         :    105.99s CPU    107.23s WALL (  466356 calls)

     Parallel routines

     PWSCF        :   3m 4.67s CPU   3m13.00s WALL


   This run was terminated on:  16:32:12  26Mar2026            

=------------------------------------------------------------------------------=
   JOB DONE.
=------------------------------------------------------------------------------=
