
     Program PWSCF v.7.3.1 starts on 26Mar2026 at 16:32:14 

     This program is part of the open-source Quantum ESPRESSO suite
     for quantum simulation of materials; please cite
         "P. Giannozzi et al., J. Phys.:Condens. Matter 21 395502 (2009);
         "P. Giannozzi et al., J. Phys.:Condens. Matter 29 465901 (2017);
         "P. Giannozzi et al., J. Chem. Phys. 152 154105 (2020);
          URL http://www.quantum-espresso.org", 
     in publications or presentations arising from this work. More details at
     http://www.quantum-espresso.org/quote

     Parallel version (MPI), running on   128 processors

     MPI processes distributed on     1 nodes
     237282 MiB available memory on the printing compute node when the environment starts

     Waiting for input...
     Reading input from standard input

     Current dimensions of program PWSCF are:
     Max number of different atomic species (ntypx) = 10
     Max number of k-points (npk) =  40000
     Max angular momentum in pseudopotentials (lmaxx) =  4

     IMPORTANT: XC functional enforced from input :
     Exchange-correlation= VDW-DF2
                           (   1   4  13   0   2   0   0)
     Any further DFT definition will be discarded
     Please, verify this is what you really want

     Found identity + ( -0.5000 -0.5000 -0.0000) symmetry
     This is a supercell, fractional translations are disabled

     K-points division:     npool     =       4
     R & G space division:  proc/nbgrp/npool/nimage =      32
     Subspace diagonalization in iterative solution of the eigenvalue problem:
     a serial algorithm will be used


     Parallelization info
     --------------------
     sticks:   dense  smooth     PW     G-vecs:    dense   smooth      PW
     Min         105     105     29                 5745     5745     833
     Max         106     106     30                 5752     5752     838
     Sum        3371    3371    947               183911   183911   26717

     Using Slab Decomposition



     bravais-lattice index     =            8
     lattice parameter (alat)  =       8.2693  a.u.
     unit-cell volume          =    1594.2979 (a.u.)^3
     number of atoms/cell      =           24
     number of atomic types    =            2
     number of electrons       =        64.00
     number of Kohn-Sham states=           32
     kinetic-energy cutoff     =      90.0000  Ry
     charge density cutoff     =     360.0000  Ry
     scf convergence threshold =      1.0E-07
     mixing beta               =       0.7000
     number of iterations used =            8  plain     mixing
     Exchange-correlation= VDW-DF2
                           (   1   4  13   0   2   0   0)

     celldm(1)=   8.269335  celldm(2)=   1.732119  celldm(3)=   1.627721
     celldm(4)=   0.000000  celldm(5)=   0.000000  celldm(6)=   0.000000

     crystal axes: (cart. coord. in units of alat)
               a(1) = (   1.000000   0.000000   0.000000 )  
               a(2) = (   0.000000   1.732119   0.000000 )  
               a(3) = (   0.000000   0.000000   1.627721 )  

     reciprocal axes: (cart. coord. in units 2 pi/alat)
               b(1) = (  1.000000  0.000000  0.000000 )  
               b(2) = (  0.000000  0.577328  0.000000 )  
               b(3) = (  0.000000  0.000000  0.614356 )  


     PseudoPot. # 1 for H  read from file:
     ./H.pbe-van_ak.UPF
     MD5 check sum: 077eb6d537518a38cb46c6de387227b7
     Pseudo is Ultrasoft, Zval =  1.0
     Generated by new atomic code, or converted to UPF format
     Using radial grid of  615 points,  1 beta functions with: 
                l(1) =   0
     Q(r) pseudized with  8 coefficients,  rinner =    0.800

     PseudoPot. # 2 for O  read from file:
     ./O.pbe-van_ak.UPF
     MD5 check sum: 78c19812648e8988a0fe644b0f25305e
     Pseudo is Ultrasoft, Zval =  6.0
     Generated by new atomic code, or converted to UPF format
     Using radial grid of  737 points,  4 beta functions with: 
                l(1) =   0
                l(2) =   0
                l(3) =   1
                l(4) =   1
     Q(r) pseudized with  8 coefficients,  rinner =    0.800   0.800   0.800


     atomic species   valence    mass     pseudopotential
     H                 1.00     1.00800     H ( 1.00)
     O                 6.00    16.00000     O ( 1.00)

      2 Sym. Ops. (no inversion) found



   Cartesian axes

     site n.     atom                  positions (alat units)
         1        O      tau(   1) = (   0.0000000   1.1505053   0.0983911  )
         2        O      tau(   2) = (   0.0000000   0.5816137   0.9122516  )
         3        O      tau(   3) = (   0.5000000   0.2844458   0.0983911  )
         4        O      tau(   4) = (   0.5000000   1.4476733   0.9122516  )
         5        O      tau(   5) = (   0.5000000   1.4413210   1.5245781  )
         6        O      tau(   6) = (   0.5000000   0.2907980   0.7107175  )
         7        O      tau(   7) = (   0.0000000   0.5752615   1.5245780  )
         8        O      tau(   8) = (   0.0000000   1.1568575   0.7107175  )
         9        H      tau(   9) = (   0.0000000   1.1476935   0.3199225  )
        10        H      tau(  10) = (   0.0000000   0.5844255   1.1337830  )
        11        H      tau(  11) = (   0.5000000   0.2816340   0.3199225  )
        12        H      tau(  12) = (   0.5000000   1.4504851   1.1337830  )
        13        H      tau(  13) = (   0.0000000   0.9389577   0.0320281  )
        14        H      tau(  14) = (   0.0000000   0.7931613   0.8458886  )
        15        H      tau(  15) = (   0.5000000   0.0728982   0.0320281  )
        16        H      tau(  16) = (   0.5000000   1.6592209   0.8458886  )
        17        H      tau(  17) = (   0.6777387   1.3318248   1.5989889  )
        18        H      tau(  18) = (   0.3222613   0.4002942   0.7851284  )
        19        H      tau(  19) = (   0.6777387   0.4002942   0.7851284  )
        20        H      tau(  20) = (   0.3222613   1.3318248   1.5989889  )
        21        H      tau(  21) = (   0.1777387   0.4657653   1.5989889  )
        22        H      tau(  22) = (   0.8222613   1.2663538   0.7851284  )
        23        H      tau(  23) = (   0.1777387   1.2663538   0.7851284  )
        24        H      tau(  24) = (   0.8222613   0.4657653   1.5989889  )

     number of k points=   460

     Number of k-points >= 100: set verbosity='high' to print them.

     Dense  grid:   183911 G-vectors     FFT dimensions: (  50,  90,  81)

     Estimated max dynamical RAM per process >      48.24 MB

     Estimated total dynamical RAM >       5.90 GB

     Initial potential from superposition of free atoms

     starting charge      63.9998, renormalised to      64.0000


     %%%%%%%%%%%%%%%%%%%%%%%%%%%%%%%%%%%%%%%%%%%%%%%%%%%%%%%%%%%%%%%%%%%%%%%%
     %                                                                      %
     % You are using vdW-DF, which was implemented by the Thonhauser group. %
     % Please cite the following two papers that made this development      %
     % possible and the two reviews that describe the various versions:     %
     %                                                                      %
     %   T. Thonhauser et al., PRL 115, 136402 (2015).                      %
     %   T. Thonhauser et al., PRB 76, 125112 (2007).                       %
     %   K. Berland et al., Rep. Prog. Phys. 78, 066501 (2015).             %
     %   D.C. Langreth et al., J. Phys.: Condens. Matter 21, 084203 (2009). %
     %                                                                      %
     % If you are calculating stress with vdW-DF, please also cite:         %
     %                                                                      %
     %   R. Sabatini et al., J. Phys.: Condens. Matter 24, 424209 (2012).   %
     %                                                                      %
     %%%%%%%%%%%%%%%%%%%%%%%%%%%%%%%%%%%%%%%%%%%%%%%%%%%%%%%%%%%%%%%%%%%%%%%%

     %%%%%%%%%%%%%%%%%%%%%%%%%%%%%%%%%%%%%%%%%%%%%%%%%%%%%%%%%%%%%%%%%%%%%%%%
     %                                                                      %
     %  vdW-DF NEWS:                                                        %
     %                                                                      %
     %  * vdW-DF3 is now available. DOI: 10.1021/acs.jctc.0c00471           %
     %    use with input_dft = 'vdW-DF3-opt1' or 'vdW-DF3-opt2'             %
     %                                                                      %
     %  * Unscreened and range-separated hybrid vdW-DF-cx functionals       %
     %    DOI: 10.1063/1.4986522 and 10.1088/1361-648X/ac2ad2               %
     %    use with input_dft = 'vdW-DF-cx0'    and 'vdW-DF-ahcx'            %
     %  * Unscreened and range-separated hybrid vdW-DF2-b86r functionals    %
     %    DOI: 10.1063/1.4986522 and DOI: 10.1103/PhysRevX.12.041003        %
     %    use with input_dft = 'vdW-DF2-br0' and 'vdW-DF2-ahbr'             %
     %                                                                      %
     %%%%%%%%%%%%%%%%%%%%%%%%%%%%%%%%%%%%%%%%%%%%%%%%%%%%%%%%%%%%%%%%%%%%%%%%


     Starting wfcs are   48 randomized atomic wfcs

     total cpu time spent up to now is        6.2 secs

     per-process dynamical memory:    55.5 Mb

     Self-consistent Calculation

     iteration #  1     ecut=    90.00 Ry     beta= 0.70
     Davidson diagonalization with overlap
     ethr =  1.00E-02,  avg # of iterations =  2.0

     total cpu time spent up to now is       15.0 secs

     total energy              =    -277.24135770 Ry
     estimated scf accuracy    <       3.31745756 Ry

     iteration #  2     ecut=    90.00 Ry     beta= 0.70
     Davidson diagonalization with overlap
     ethr =  5.18E-03,  avg # of iterations =  3.0

     total cpu time spent up to now is       26.7 secs

     total energy              =    -278.31406108 Ry
     estimated scf accuracy    <       2.11412331 Ry

     iteration #  3     ecut=    90.00 Ry     beta= 0.70
     Davidson diagonalization with overlap
     ethr =  3.30E-03,  avg # of iterations =  2.0

     total cpu time spent up to now is       35.7 secs

     total energy              =    -278.61382325 Ry
     estimated scf accuracy    <       0.07899189 Ry

     iteration #  4     ecut=    90.00 Ry     beta= 0.70
     Davidson diagonalization with overlap
     ethr =  1.23E-04,  avg # of iterations =  4.0

     total cpu time spent up to now is       49.2 secs

     total energy              =    -278.67486031 Ry
     estimated scf accuracy    <       0.10594866 Ry

     iteration #  5     ecut=    90.00 Ry     beta= 0.70
     Davidson diagonalization with overlap
     ethr =  1.23E-04,  avg # of iterations =  2.0

     total cpu time spent up to now is       57.1 secs

     total energy              =    -278.67550743 Ry
     estimated scf accuracy    <       0.01466985 Ry

     iteration #  6     ecut=    90.00 Ry     beta= 0.70
     Davidson diagonalization with overlap
     ethr =  2.29E-05,  avg # of iterations =  2.0

     total cpu time spent up to now is       66.7 secs

     total energy              =    -278.68106910 Ry
     estimated scf accuracy    <       0.00021015 Ry

     iteration #  7     ecut=    90.00 Ry     beta= 0.70
     Davidson diagonalization with overlap
     ethr =  3.28E-07,  avg # of iterations =  5.2

     total cpu time spent up to now is       81.0 secs

     total energy              =    -278.68134812 Ry
     estimated scf accuracy    <       0.00277992 Ry

     iteration #  8     ecut=    90.00 Ry     beta= 0.70
     Davidson diagonalization with overlap
     ethr =  3.28E-07,  avg # of iterations =  2.0

     total cpu time spent up to now is       88.5 secs

     total energy              =    -278.68058552 Ry
     estimated scf accuracy    <       0.00195890 Ry

     iteration #  9     ecut=    90.00 Ry     beta= 0.70
     Davidson diagonalization with overlap
     ethr =  3.28E-07,  avg # of iterations =  3.0

     total cpu time spent up to now is      100.3 secs

     total energy              =    -278.68082349 Ry
     estimated scf accuracy    <       0.00009961 Ry

     iteration # 10     ecut=    90.00 Ry     beta= 0.70
     Davidson diagonalization with overlap
     ethr =  1.56E-07,  avg # of iterations =  1.0

     total cpu time spent up to now is      106.9 secs

     total energy              =    -278.68079483 Ry
     estimated scf accuracy    <       0.00008698 Ry

     iteration # 11     ecut=    90.00 Ry     beta= 0.70
     Davidson diagonalization with overlap
     ethr =  1.36E-07,  avg # of iterations =  2.0

     total cpu time spent up to now is      115.7 secs

     total energy              =    -278.68080763 Ry
     estimated scf accuracy    <       0.00000727 Ry

     iteration # 12     ecut=    90.00 Ry     beta= 0.70
     Davidson diagonalization with overlap
     ethr =  1.14E-08,  avg # of iterations =  4.0

     total cpu time spent up to now is      129.2 secs

     total energy              =    -278.68081343 Ry
     estimated scf accuracy    <       0.00001192 Ry

     iteration # 13     ecut=    90.00 Ry     beta= 0.70
     Davidson diagonalization with overlap
     ethr =  1.14E-08,  avg # of iterations =  1.6

     total cpu time spent up to now is      136.3 secs

     total energy              =    -278.68081425 Ry
     estimated scf accuracy    <       0.00000319 Ry

     iteration # 14     ecut=    90.00 Ry     beta= 0.70
     Davidson diagonalization with overlap
     ethr =  4.98E-09,  avg # of iterations =  1.0

     total cpu time spent up to now is      142.8 secs

     total energy              =    -278.68081519 Ry
     estimated scf accuracy    <       0.00000443 Ry

     iteration # 15     ecut=    90.00 Ry     beta= 0.70
     Davidson diagonalization with overlap
     ethr =  4.98E-09,  avg # of iterations =  1.0

     total cpu time spent up to now is      149.4 secs

     total energy              =    -278.68081231 Ry
     estimated scf accuracy    <       0.00000723 Ry

     iteration # 16     ecut=    90.00 Ry     beta= 0.70
     Davidson diagonalization with overlap
     ethr =  4.98E-09,  avg # of iterations =  2.0

     total cpu time spent up to now is      158.9 secs

     total energy              =    -278.68081305 Ry
     estimated scf accuracy    <       0.00000074 Ry

     iteration # 17     ecut=    90.00 Ry     beta= 0.70
     Davidson diagonalization with overlap
     ethr =  1.15E-09,  avg # of iterations =  2.3

     total cpu time spent up to now is      168.2 secs

     total energy              =    -278.68081324 Ry
     estimated scf accuracy    <       0.00000038 Ry

     iteration # 18     ecut=    90.00 Ry     beta= 0.70
     Davidson diagonalization with overlap
     ethr =  5.97E-10,  avg # of iterations =  2.0

     total cpu time spent up to now is      176.4 secs

     total energy              =    -278.68081318 Ry
     estimated scf accuracy    <       0.00000031 Ry

     iteration # 19     ecut=    90.00 Ry     beta= 0.70
     Davidson diagonalization with overlap
     ethr =  4.77E-10,  avg # of iterations =  1.0

     total cpu time spent up to now is      183.0 secs

     End of self-consistent calculation

     Number of k-points >= 100: set verbosity='high' to print the bands.

     highest occupied level (ev):    -3.5369

!    total energy              =    -278.68081314 Ry
     estimated scf accuracy    <       0.00000007 Ry

     The total energy is the sum of the following terms:
     one-electron contribution =    -232.54380335 Ry
     hartree contribution      =     137.85538311 Ry
     xc contribution           =     -71.09854771 Ry
     ewald contribution        =    -112.89384519 Ry

     convergence has been achieved in  19 iterations

     Forces acting on atoms (cartesian axes, Ry/au):

     atom    1 type  2   force =     0.00000000    0.04107308   -0.02992417
     atom    2 type  2   force =     0.00000000   -0.04102134   -0.02989090
     atom    3 type  2   force =     0.00000000    0.04107292   -0.02992401
     atom    4 type  2   force =     0.00000000   -0.04102189   -0.02989115
     atom    5 type  2   force =     0.00000000    0.04070753   -0.02851503
     atom    6 type  2   force =     0.00000000   -0.04064277   -0.02883903
     atom    7 type  2   force =     0.00000000    0.04070778   -0.02851520
     atom    8 type  2   force =     0.00000000   -0.04064274   -0.02883881
     atom    9 type  1   force =     0.00000000    0.00221096    0.04629308
     atom   10 type  1   force =     0.00000000   -0.00223577    0.04642408
     atom   11 type  1   force =     0.00000000    0.00221096    0.04629310
     atom   12 type  1   force =     0.00000000   -0.00223580    0.04642409
     atom   13 type  1   force =     0.00000000   -0.04279072   -0.01640846
     atom   14 type  1   force =     0.00000000    0.04275454   -0.01639415
     atom   15 type  1   force =     0.00000000   -0.04279078   -0.01640848
     atom   16 type  1   force =     0.00000000    0.04275448   -0.01639416
     atom   17 type  1   force =     0.03861337   -0.02127521    0.01432127
     atom   18 type  1   force =    -0.03860260    0.02124760    0.01430602
     atom   19 type  1   force =     0.03860260    0.02124760    0.01430602
     atom   20 type  1   force =    -0.03861337   -0.02127521    0.01432127
     atom   21 type  1   force =     0.03861340   -0.02127521    0.01432127
     atom   22 type  1   force =    -0.03860262    0.02124761    0.01430604
     atom   23 type  1   force =     0.03860262    0.02124761    0.01430604
     atom   24 type  1   force =    -0.03861340   -0.02127521    0.01432127

     Total force =     0.233271     Total SCF correction =     0.000120


     Computing stress (Cartesian axis) and pressure

          total   stress  (Ry/bohr**3)                   (kbar)     P=       63.95
   0.00042513   0.00000000   0.00000000           62.54        0.00        0.00
   0.00000000   0.00044998  -0.00000002            0.00       66.19       -0.00
   0.00000000  -0.00000002   0.00042912            0.00       -0.00       63.13


     Writing all to output data dir ./iceIh/iceIh.save/ :
     XML data file, charge density, pseudopotentials, collected wavefunctions

     init_run     :      5.87s CPU      5.98s WALL (       1 calls)
     electrons    :    174.11s CPU    176.86s WALL (       1 calls)
     forces       :      0.55s CPU      0.55s WALL (       1 calls)
     stress       :      8.20s CPU      8.22s WALL (       1 calls)

     Called by init_run:
     wfcinit      :      3.95s CPU      4.01s WALL (       1 calls)
     potinit      :      1.58s CPU      1.61s WALL (       1 calls)
     hinit0       :      0.26s CPU      0.27s WALL (       1 calls)

     Called by electrons:
     c_bands      :    152.39s CPU    154.72s WALL (      19 calls)
     sum_band     :     20.42s CPU     20.64s WALL (      19 calls)
     v_of_rho     :      2.72s CPU      2.87s WALL (      20 calls)
     newd         :      0.05s CPU      0.06s WALL (      20 calls)
     mix_rho      :      0.06s CPU      0.06s WALL (      19 calls)
     vdW_kernel   :      1.52s CPU      1.52s WALL (       1 calls)

     Called by c_bands:
     init_us_2    :      2.38s CPU      2.45s WALL (    4715 calls)
     cegterg      :    146.76s CPU    148.19s WALL (    2185 calls)

     Called by *egterg:
     cdiaghg      :     12.01s CPU     12.06s WALL (    7182 calls)
     h_psi        :    115.48s CPU    116.82s WALL (    7297 calls)
     s_psi        :      4.43s CPU      4.46s WALL (    7297 calls)
     g_psi        :      0.39s CPU      0.39s WALL (    4997 calls)

     Called by h_psi:
     h_psi:calbec :      7.00s CPU      7.07s WALL (    7297 calls)
     vloc_psi     :    103.05s CPU    104.25s WALL (    7297 calls)
     add_vuspsi   :      4.64s CPU      4.69s WALL (    7297 calls)

     General routines
     calbec       :      9.28s CPU      9.37s WALL (   10057 calls)
     fft          :      0.88s CPU      0.89s WALL (    1272 calls)
     ffts         :      0.01s CPU      0.01s WALL (      19 calls)
     fftw         :    109.40s CPU    110.63s WALL (  480238 calls)

     Parallel routines

     PWSCF        :   3m11.52s CPU   3m19.95s WALL


   This run was terminated on:  16:35:34  26Mar2026            

=------------------------------------------------------------------------------=
   JOB DONE.
=------------------------------------------------------------------------------=
