
     Program PWSCF v.7.3.1 starts on  1Apr2026 at 21:11:55 

     This program is part of the open-source Quantum ESPRESSO suite
     for quantum simulation of materials; please cite
         "P. Giannozzi et al., J. Phys.:Condens. Matter 21 395502 (2009);
         "P. Giannozzi et al., J. Phys.:Condens. Matter 29 465901 (2017);
         "P. Giannozzi et al., J. Chem. Phys. 152 154105 (2020);
          URL http://www.quantum-espresso.org", 
     in publications or presentations arising from this work. More details at
     http://www.quantum-espresso.org/quote

     Parallel version (MPI), running on   128 processors

     MPI processes distributed on     1 nodes
     237290 MiB available memory on the printing compute node when the environment starts

     Waiting for input...
     Reading input from standard input

     Current dimensions of program PWSCF are:
     Max number of different atomic species (ntypx) = 10
     Max number of k-points (npk) =  40000
     Max angular momentum in pseudopotentials (lmaxx) =  4

     IMPORTANT: XC functional enforced from input :
     Exchange-correlation= VDW-DF2
                           (   1   4  13   0   2   0   0)
     Any further DFT definition will be discarded
     Please, verify this is what you really want

     Found identity + ( -0.5000 -0.5000  0.0000) symmetry
     This is a supercell, fractional translations are disabled

     K-points division:     npool     =       4
     R & G space division:  proc/nbgrp/npool/nimage =      32
     Subspace diagonalization in iterative solution of the eigenvalue problem:
     a serial algorithm will be used


     Parallelization info
     --------------------
     sticks:   dense  smooth     PW     G-vecs:    dense   smooth      PW
     Min         105     105     29                 5759     5759     835
     Max         106     106     30                 5764     5764     840
     Sum        3387    3387    947               184363   184363   26809

     Using Slab Decomposition



     bravais-lattice index     =            8
     lattice parameter (alat)  =       8.2778  a.u.
     unit-cell volume          =    1599.2237 (a.u.)^3
     number of atoms/cell      =           24
     number of atomic types    =            2
     number of electrons       =        64.00
     number of Kohn-Sham states=           32
     kinetic-energy cutoff     =      90.0000  Ry
     charge density cutoff     =     360.0000  Ry
     scf convergence threshold =      1.0E-07
     mixing beta               =       0.7000
     number of iterations used =            8  plain     mixing
     energy convergence thresh.=      1.0E-04
     force convergence thresh. =      1.0E-03
     Exchange-correlation= VDW-DF2
                           (   1   4  13   0   2   0   0)
     nstep                     =           50


     celldm(1)=   8.277843  celldm(2)=   1.732119  celldm(3)=   1.627721
     celldm(4)=   0.000000  celldm(5)=   0.000000  celldm(6)=   0.000000

     crystal axes: (cart. coord. in units of alat)
               a(1) = (   1.000000   0.000000   0.000000 )  
               a(2) = (   0.000000   1.732119   0.000000 )  
               a(3) = (   0.000000   0.000000   1.627721 )  

     reciprocal axes: (cart. coord. in units 2 pi/alat)
               b(1) = (  1.000000  0.000000  0.000000 )  
               b(2) = (  0.000000  0.577328  0.000000 )  
               b(3) = (  0.000000  0.000000  0.614356 )  


     PseudoPot. # 1 for H  read from file:
     ./H.pbe-van_ak.UPF
     MD5 check sum: 077eb6d537518a38cb46c6de387227b7
     Pseudo is Ultrasoft, Zval =  1.0
     Generated by new atomic code, or converted to UPF format
     Using radial grid of  615 points,  1 beta functions with: 
                l(1) =   0
     Q(r) pseudized with  8 coefficients,  rinner =    0.800

     PseudoPot. # 2 for O  read from file:
     ./O.pbe-van_ak.UPF
     MD5 check sum: 78c19812648e8988a0fe644b0f25305e
     Pseudo is Ultrasoft, Zval =  6.0
     Generated by new atomic code, or converted to UPF format
     Using radial grid of  737 points,  4 beta functions with: 
                l(1) =   0
                l(2) =   0
                l(3) =   1
                l(4) =   1
     Q(r) pseudized with  8 coefficients,  rinner =    0.800   0.800   0.800


     atomic species   valence    mass     pseudopotential
     H                 1.00     1.00800     H ( 1.00)
     O                 6.00    16.00000     O ( 1.00)

      2 Sym. Ops. (no inversion) found



   Cartesian axes

     site n.     atom                  positions (alat units)
         1        O      tau(   1) = (   0.0000000   1.1515127   0.1027092  )
         2        O      tau(   2) = (   0.0000000   0.5806063   0.9165697  )
         3        O      tau(   3) = (   0.5000000   0.2854532   0.1027092  )
         4        O      tau(   4) = (   0.5000000   1.4466659   0.9165697  )
         5        O      tau(   5) = (   0.5000000   1.4298643   1.5250118  )
         6        O      tau(   6) = (   0.5000000   0.3022548   0.7111513  )
         7        O      tau(   7) = (   0.0000000   0.5638048   1.5250118  )
         8        O      tau(   8) = (   0.0000000   1.1683143   0.7111513  )
         9        H      tau(   9) = (   0.0000000   1.1494343   0.3195216  )
        10        H      tau(  10) = (   0.0000000   0.5826848   1.1333822  )
        11        H      tau(  11) = (   0.5000000   0.2833747   0.3195216  )
        12        H      tau(  12) = (   0.5000000   1.4487443   1.1333822  )
        13        H      tau(  13) = (   0.0000000   0.9289355   0.0297873  )
        14        H      tau(  14) = (   0.0000000   0.8031836   0.8436478  )
        15        H      tau(  15) = (   0.5000000   0.0628759   0.0297873  )
        16        H      tau(  16) = (   0.5000000   1.6692431   0.8436478  )
        17        H      tau(  17) = (   0.6766000   1.3420459   1.5979337  )
        18        H      tau(  18) = (   0.3234000   0.3900732   0.7840732  )
        19        H      tau(  19) = (   0.6766000   0.3900732   0.7840732  )
        20        H      tau(  20) = (   0.3234000   1.3420459   1.5979337  )
        21        H      tau(  21) = (   0.1766000   0.4759863   1.5979337  )
        22        H      tau(  22) = (   0.8234000   1.2561327   0.7840732  )
        23        H      tau(  23) = (   0.1766000   1.2561327   0.7840732  )
        24        H      tau(  24) = (   0.8234000   0.4759863   1.5979337  )

     number of k points=   460

     Number of k-points >= 100: set verbosity='high' to print them.

     Dense  grid:   184363 G-vectors     FFT dimensions: (  50,  90,  81)

     Estimated max dynamical RAM per process >      48.36 MB

     Estimated total dynamical RAM >       5.91 GB

     Initial potential from superposition of free atoms

     starting charge      63.9998, renormalised to      64.0000


     %%%%%%%%%%%%%%%%%%%%%%%%%%%%%%%%%%%%%%%%%%%%%%%%%%%%%%%%%%%%%%%%%%%%%%%%
     %                                                                      %
     % You are using vdW-DF, which was implemented by the Thonhauser group. %
     % Please cite the following two papers that made this development      %
     % possible and the two reviews that describe the various versions:     %
     %                                                                      %
     %   T. Thonhauser et al., PRL 115, 136402 (2015).                      %
     %   T. Thonhauser et al., PRB 76, 125112 (2007).                       %
     %   K. Berland et al., Rep. Prog. Phys. 78, 066501 (2015).             %
     %   D.C. Langreth et al., J. Phys.: Condens. Matter 21, 084203 (2009). %
     %                                                                      %
     % If you are calculating stress with vdW-DF, please also cite:         %
     %                                                                      %
     %   R. Sabatini et al., J. Phys.: Condens. Matter 24, 424209 (2012).   %
     %                                                                      %
     %%%%%%%%%%%%%%%%%%%%%%%%%%%%%%%%%%%%%%%%%%%%%%%%%%%%%%%%%%%%%%%%%%%%%%%%

     %%%%%%%%%%%%%%%%%%%%%%%%%%%%%%%%%%%%%%%%%%%%%%%%%%%%%%%%%%%%%%%%%%%%%%%%
     %                                                                      %
     %  vdW-DF NEWS:                                                        %
     %                                                                      %
     %  * vdW-DF3 is now available. DOI: 10.1021/acs.jctc.0c00471           %
     %    use with input_dft = 'vdW-DF3-opt1' or 'vdW-DF3-opt2'             %
     %                                                                      %
     %  * Unscreened and range-separated hybrid vdW-DF-cx functionals       %
     %    DOI: 10.1063/1.4986522 and 10.1088/1361-648X/ac2ad2               %
     %    use with input_dft = 'vdW-DF-cx0'    and 'vdW-DF-ahcx'            %
     %  * Unscreened and range-separated hybrid vdW-DF2-b86r functionals    %
     %    DOI: 10.1063/1.4986522 and DOI: 10.1103/PhysRevX.12.041003        %
     %    use with input_dft = 'vdW-DF2-br0' and 'vdW-DF2-ahbr'             %
     %                                                                      %
     %%%%%%%%%%%%%%%%%%%%%%%%%%%%%%%%%%%%%%%%%%%%%%%%%%%%%%%%%%%%%%%%%%%%%%%%


     Starting wfcs are   48 randomized atomic wfcs

     total cpu time spent up to now is        6.3 secs

     per-process dynamical memory:    56.1 Mb

     Self-consistent Calculation

     iteration #  1     ecut=    90.00 Ry     beta= 0.70
     Davidson diagonalization with overlap
     ethr =  1.00E-02,  avg # of iterations =  2.0

     total cpu time spent up to now is       15.0 secs

     total energy              =    -277.09012314 Ry
     estimated scf accuracy    <       3.49233223 Ry

     iteration #  2     ecut=    90.00 Ry     beta= 0.70
     Davidson diagonalization with overlap
     ethr =  5.46E-03,  avg # of iterations =  3.0

     total cpu time spent up to now is       26.8 secs

     total energy              =    -278.21336254 Ry
     estimated scf accuracy    <       2.18445376 Ry

     iteration #  3     ecut=    90.00 Ry     beta= 0.70
     Davidson diagonalization with overlap
     ethr =  3.41E-03,  avg # of iterations =  2.0

     total cpu time spent up to now is       35.6 secs

     total energy              =    -278.52814096 Ry
     estimated scf accuracy    <       0.07876277 Ry

     iteration #  4     ecut=    90.00 Ry     beta= 0.70
     Davidson diagonalization with overlap
     ethr =  1.23E-04,  avg # of iterations =  4.0

     total cpu time spent up to now is       49.0 secs

     total energy              =    -278.59019394 Ry
     estimated scf accuracy    <       0.10181333 Ry

     iteration #  5     ecut=    90.00 Ry     beta= 0.70
     Davidson diagonalization with overlap
     ethr =  1.23E-04,  avg # of iterations =  2.0

     total cpu time spent up to now is       56.6 secs

     total energy              =    -278.59472617 Ry
     estimated scf accuracy    <       0.01549429 Ry

     iteration #  6     ecut=    90.00 Ry     beta= 0.70
     Davidson diagonalization with overlap
     ethr =  2.42E-05,  avg # of iterations =  2.0

     total cpu time spent up to now is       64.5 secs

     total energy              =    -278.59337867 Ry
     estimated scf accuracy    <       0.00617023 Ry

     iteration #  7     ecut=    90.00 Ry     beta= 0.70
     Davidson diagonalization with overlap
     ethr =  9.64E-06,  avg # of iterations =  3.0

     total cpu time spent up to now is       74.7 secs

     total energy              =    -278.59537265 Ry
     estimated scf accuracy    <       0.00003906 Ry

     iteration #  8     ecut=    90.00 Ry     beta= 0.70
     Davidson diagonalization with overlap
     ethr =  6.10E-08,  avg # of iterations =  5.2

     total cpu time spent up to now is       91.1 secs

     total energy              =    -278.59533011 Ry
     estimated scf accuracy    <       0.00134112 Ry

     iteration #  9     ecut=    90.00 Ry     beta= 0.70
     Davidson diagonalization with overlap
     ethr =  6.10E-08,  avg # of iterations =  4.0

     total cpu time spent up to now is      104.0 secs

     total energy              =    -278.59529006 Ry
     estimated scf accuracy    <       0.00043732 Ry

     iteration # 10     ecut=    90.00 Ry     beta= 0.70
     Davidson diagonalization with overlap
     ethr =  6.10E-08,  avg # of iterations =  3.0

     total cpu time spent up to now is      114.7 secs

     total energy              =    -278.59524382 Ry
     estimated scf accuracy    <       0.00016857 Ry

     iteration # 11     ecut=    90.00 Ry     beta= 0.70
     Davidson diagonalization with overlap
     ethr =  6.10E-08,  avg # of iterations =  3.0

     total cpu time spent up to now is      125.7 secs

     total energy              =    -278.59525956 Ry
     estimated scf accuracy    <       0.00001487 Ry

     iteration # 12     ecut=    90.00 Ry     beta= 0.70
     Davidson diagonalization with overlap
     ethr =  2.32E-08,  avg # of iterations =  2.0

     total cpu time spent up to now is      134.6 secs

     total energy              =    -278.59526096 Ry
     estimated scf accuracy    <       0.00000209 Ry

     iteration # 13     ecut=    90.00 Ry     beta= 0.70
     Davidson diagonalization with overlap
     ethr =  3.26E-09,  avg # of iterations =  3.0

     total cpu time spent up to now is      144.9 secs

     End of self-consistent calculation

     Number of k-points >= 100: set verbosity='high' to print the bands.

     highest occupied level (ev):    -3.4656

!    total energy              =    -278.59526162 Ry
     estimated scf accuracy    <       0.00000008 Ry

     The total energy is the sum of the following terms:
     one-electron contribution =    -234.91970309 Ry
     hartree contribution      =     138.90803473 Ry
     xc contribution           =     -71.29941224 Ry
     ewald contribution        =    -111.28418102 Ry

     convergence has been achieved in  13 iterations

     Forces acting on atoms (cartesian axes, Ry/au):

     atom    1 type  2   force =     0.00000000   -0.03657870   -0.09573961
     atom    2 type  2   force =     0.00000000    0.03654020   -0.09571804
     atom    3 type  2   force =     0.00000000   -0.03657909   -0.09573932
     atom    4 type  2   force =     0.00000000    0.03654011   -0.09571808
     atom    5 type  2   force =     0.00000000    0.15111572   -0.10957977
     atom    6 type  2   force =     0.00000000   -0.15093939   -0.10982939
     atom    7 type  2   force =     0.00000000    0.15111576   -0.10957966
     atom    8 type  2   force =     0.00000000   -0.15093921   -0.10982921
     atom    9 type  1   force =     0.00000000   -0.00191433    0.07836075
     atom   10 type  1   force =     0.00000000    0.00188823    0.07848916
     atom   11 type  1   force =     0.00000000   -0.00191435    0.07836078
     atom   12 type  1   force =     0.00000000    0.00188822    0.07848910
     atom   13 type  1   force =     0.00000000    0.03630316    0.01163642
     atom   14 type  1   force =     0.00000000   -0.03633401    0.01164029
     atom   15 type  1   force =     0.00000000    0.03630312    0.01163642
     atom   16 type  1   force =     0.00000000   -0.03633415    0.01164035
     atom   17 type  1   force =     0.11536358   -0.07537226    0.05769279
     atom   18 type  1   force =    -0.11534679    0.07533194    0.05767711
     atom   19 type  1   force =     0.11534679    0.07533194    0.05767711
     atom   20 type  1   force =    -0.11536358   -0.07537226    0.05769279
     atom   21 type  1   force =     0.11536367   -0.07537230    0.05769284
     atom   22 type  1   force =    -0.11534691    0.07533198    0.05767716
     atom   23 type  1   force =     0.11534691    0.07533198    0.05767716
     atom   24 type  1   force =    -0.11536367   -0.07537230    0.05769284

     Total force =     0.624750     Total SCF correction =     0.000394


     Computing stress (Cartesian axis) and pressure

          total   stress  (Ry/bohr**3)                   (kbar)     P=       93.91
   0.00102103   0.00000000   0.00000000          150.20        0.00        0.00
   0.00000000   0.00019426  -0.00000010            0.00       28.58       -0.01
   0.00000000  -0.00000010   0.00069984            0.00       -0.01      102.95


     BFGS Geometry Optimization
     Energy error            =      0.0E+00 Ry
     Gradient error          =      1.5E-01 Ry/Bohr

     number of scf cycles    =   1
     number of bfgs steps    =   0

     energy             new  =    -278.5952616202 Ry

     new trust radius        =       0.1866686700 bohr
     new conv_thr            =       0.0000001000 Ry


ATOMIC_POSITIONS (crystal)
O                0.0000000000        0.6622488532        0.0559945052
O                0.0000000000        0.3377484617        0.5559960832
O                0.5000000000        0.1622488263        0.0559945263
O                0.5000000000        0.8377484550        0.5559960799
O                0.5000000000        0.8360393829        0.9287673484
O                0.5000000000        0.1639729151        0.4287487924
O                0.0000000000        0.3360393856        0.9287673565
O                0.0000000000        0.6639729273        0.4287488054
H                0.0000000000        0.6634665157        0.2021156930
H                0.0000000000        0.3365316640        0.7021252528
H                0.5000000000        0.1634665143        0.2021156949
H                0.5000000000        0.8365316635        0.7021252482
H                0.0000000000        0.5388319216        0.0191636199
H                0.0000000000        0.4611659269        0.5191639032
H                0.5000000000        0.0388319182        0.0191636199
H                0.5000000000        0.9611659171        0.5191639075
H                0.6905364095        0.7695432614        0.9859817837
H                0.3094656187        0.2304539265        0.4859806202
H                0.6905343813        0.2304539265        0.4859806202
H                0.3094635905        0.7695432614        0.9859817837
H                0.1905364206        0.2695432587        0.9859817869
H                0.8094656047        0.7304539293        0.4859806239
H                0.1905343953        0.7304539293        0.4859806239
H                0.8094635794        0.2695432587        0.9859817869



     Writing config-only to output data dir ./iceIh_vdw/iceIh_vdw.save/ :
     XML data file
     NEW-OLD atomic charge density approx. for the potential

     total cpu time spent up to now is      154.1 secs

     per-process dynamical memory:    56.1 Mb

     Self-consistent Calculation

     iteration #  1     ecut=    90.00 Ry     beta= 0.70
     Davidson diagonalization with overlap
     ethr =  1.00E-06,  avg # of iterations = 11.0

     total cpu time spent up to now is      183.2 secs

     total energy              =    -278.62176183 Ry
     estimated scf accuracy    <       0.11220703 Ry

     iteration #  2     ecut=    90.00 Ry     beta= 0.70
     Davidson diagonalization with overlap
     ethr =  1.75E-04,  avg # of iterations =  3.0

     total cpu time spent up to now is      193.9 secs

     total energy              =    -278.64618901 Ry
     estimated scf accuracy    <       0.05467891 Ry

     iteration #  3     ecut=    90.00 Ry     beta= 0.70
     Davidson diagonalization with overlap
     ethr =  8.54E-05,  avg # of iterations =  2.6

     total cpu time spent up to now is      203.3 secs

     total energy              =    -278.65861725 Ry
     estimated scf accuracy    <       0.00103805 Ry

     iteration #  4     ecut=    90.00 Ry     beta= 0.70
     Davidson diagonalization with overlap
     ethr =  1.62E-06,  avg # of iterations =  3.9

     total cpu time spent up to now is      215.9 secs

     total energy              =    -278.65902916 Ry
     estimated scf accuracy    <       0.00096122 Ry

     iteration #  5     ecut=    90.00 Ry     beta= 0.70
     Davidson diagonalization with overlap
     ethr =  1.50E-06,  avg # of iterations =  2.0

     total cpu time spent up to now is      224.6 secs

     total energy              =    -278.65916151 Ry
     estimated scf accuracy    <       0.00006328 Ry

     iteration #  6     ecut=    90.00 Ry     beta= 0.70
     Davidson diagonalization with overlap
     ethr =  9.89E-08,  avg # of iterations =  4.5

     total cpu time spent up to now is      238.1 secs

     total energy              =    -278.65919796 Ry
     estimated scf accuracy    <       0.00010732 Ry

     iteration #  7     ecut=    90.00 Ry     beta= 0.70
     Davidson diagonalization with overlap
     ethr =  9.89E-08,  avg # of iterations =  2.5

     total cpu time spent up to now is      247.1 secs

     total energy              =    -278.65920269 Ry
     estimated scf accuracy    <       0.00001109 Ry

     iteration #  8     ecut=    90.00 Ry     beta= 0.70
     Davidson diagonalization with overlap
     ethr =  1.73E-08,  avg # of iterations =  3.3

     total cpu time spent up to now is      258.1 secs

     total energy              =    -278.65920783 Ry
     estimated scf accuracy    <       0.00000197 Ry

     iteration #  9     ecut=    90.00 Ry     beta= 0.70
     Davidson diagonalization with overlap
     ethr =  3.09E-09,  avg # of iterations =  2.0

     total cpu time spent up to now is      266.4 secs

     total energy              =    -278.65920776 Ry
     estimated scf accuracy    <       0.00000087 Ry

     iteration # 10     ecut=    90.00 Ry     beta= 0.70
     Davidson diagonalization with overlap
     ethr =  1.36E-09,  avg # of iterations =  2.0

     total cpu time spent up to now is      274.2 secs

     total energy              =    -278.65920776 Ry
     estimated scf accuracy    <       0.00000017 Ry

     iteration # 11     ecut=    90.00 Ry     beta= 0.70
     Davidson diagonalization with overlap
     ethr =  2.70E-10,  avg # of iterations =  3.1

     total cpu time spent up to now is      284.2 secs

     End of self-consistent calculation

     Number of k-points >= 100: set verbosity='high' to print the bands.

     highest occupied level (ev):    -3.3293

!    total energy              =    -278.65920782 Ry
     estimated scf accuracy    <          3.6E-09 Ry

     The total energy is the sum of the following terms:
     one-electron contribution =    -226.06580939 Ry
     hartree contribution      =     134.94445304 Ry
     xc contribution           =     -70.41245252 Ry
     ewald contribution        =    -117.12539895 Ry

     convergence has been achieved in  11 iterations

     Forces acting on atoms (cartesian axes, Ry/au):

     atom    1 type  2   force =     0.00000000    0.05685630    0.06038510
     atom    2 type  2   force =     0.00000000   -0.05687493    0.06047480
     atom    3 type  2   force =     0.00000000    0.05685659    0.06038498
     atom    4 type  2   force =     0.00000000   -0.05687497    0.06047481
     atom    5 type  2   force =     0.00000000   -0.06337018    0.05438424
     atom    6 type  2   force =     0.00000000    0.06328811    0.05458263
     atom    7 type  2   force =     0.00000000   -0.06337020    0.05438425
     atom    8 type  2   force =     0.00000000    0.06328808    0.05458258
     atom    9 type  1   force =     0.00000000    0.00190628   -0.03561270
     atom   10 type  1   force =     0.00000000   -0.00189682   -0.03564121
     atom   11 type  1   force =     0.00000000    0.00190622   -0.03561259
     atom   12 type  1   force =     0.00000000   -0.00189684   -0.03564118
     atom   13 type  1   force =     0.00000000   -0.04330898   -0.02074949
     atom   14 type  1   force =     0.00000000    0.04332121   -0.02073408
     atom   15 type  1   force =     0.00000000   -0.04330921   -0.02074952
     atom   16 type  1   force =     0.00000000    0.04332126   -0.02073411
     atom   17 type  1   force =    -0.04351320    0.02396349   -0.02927223
     atom   18 type  1   force =     0.04351256   -0.02392400   -0.02927241
     atom   19 type  1   force =    -0.04351256   -0.02392400   -0.02927241
     atom   20 type  1   force =     0.04351320    0.02396349   -0.02927223
     atom   21 type  1   force =    -0.04351324    0.02396350   -0.02927223
     atom   22 type  1   force =     0.04351258   -0.02392397   -0.02927239
     atom   23 type  1   force =    -0.04351258   -0.02392397   -0.02927239
     atom   24 type  1   force =     0.04351324    0.02396350   -0.02927223

     Total force =     0.310425     Total SCF correction =     0.000062


     Computing stress (Cartesian axis) and pressure

          total   stress  (Ry/bohr**3)                   (kbar)     P=      -14.42
  -0.00032668   0.00000000   0.00000000          -48.06        0.00        0.00
   0.00000000   0.00021247   0.00000003            0.00       31.26        0.00
   0.00000000   0.00000003  -0.00017990            0.00        0.00      -26.46

     Energy error            =      6.4E-02 Ry
     Gradient error          =      6.3E-02 Ry/Bohr

     number of scf cycles    =   2
     number of bfgs steps    =   1

     energy             old  =    -278.5952616202 Ry
     energy             new  =    -278.6592078223 Ry

     CASE: energy            _new < energy            _old

     new trust radius        =       0.0553028414 bohr
     new conv_thr            =       0.0000000634 Ry


ATOMIC_POSITIONS (crystal)
O                0.0000000000        0.6649215068        0.0589482620
O                0.0000000000        0.3350748768        0.5589544198
O                0.5000000000        0.1649214935        0.0589482771
O                0.5000000000        0.8350748680        0.5589544168
O                0.5000000000        0.8331823470        0.9314001352
O                0.5000000000        0.1668262297        0.4313913596
O                0.0000000000        0.3331823489        0.9314001442
O                0.0000000000        0.6668262404        0.4313913704
H                0.0000000000        0.6635553652        0.2003994104
H                0.0000000000        0.3364432374        0.7004076734
H                0.5000000000        0.1635553609        0.2003994182
H                0.5000000000        0.8364432358        0.7004076700
H                0.0000000000        0.5368054066        0.0181236747
H                0.0000000000        0.4631929914        0.5181247452
H                0.5000000000        0.0368053924        0.0181236735
H                0.5000000000        0.9631929837        0.5181247477
H                0.6871605422        0.7706035297        0.9845631770
H                0.3128414650        0.2293954983        0.4845619860
H                0.6871585350        0.2293954983        0.4845619860
H                0.3128394578        0.7706035297        0.9845631770
H                0.1871605498        0.2706035275        0.9845631802
H                0.8128414522        0.7293955023        0.4845619908
H                0.1871585478        0.7293955023        0.4845619908
H                0.8128394502        0.2706035275        0.9845631802



     Writing config-only to output data dir ./iceIh_vdw/iceIh_vdw.save/ :
     XML data file
     NEW-OLD atomic charge density approx. for the potential

     total cpu time spent up to now is      293.3 secs

     per-process dynamical memory:    56.9 Mb

     Self-consistent Calculation

     iteration #  1     ecut=    90.00 Ry     beta= 0.70
     Davidson diagonalization with overlap
     ethr =  1.00E-06,  avg # of iterations =  8.6

     total cpu time spent up to now is      315.6 secs

     total energy              =    -278.69316121 Ry
     estimated scf accuracy    <       0.01036611 Ry

     iteration #  2     ecut=    90.00 Ry     beta= 0.70
     Davidson diagonalization with overlap
     ethr =  1.62E-05,  avg # of iterations =  3.0

     total cpu time spent up to now is      326.0 secs

     total energy              =    -278.69530256 Ry
     estimated scf accuracy    <       0.00357410 Ry

     iteration #  3     ecut=    90.00 Ry     beta= 0.70
     Davidson diagonalization with overlap
     ethr =  5.58E-06,  avg # of iterations =  3.0

     total cpu time spent up to now is      335.9 secs

     total energy              =    -278.69618295 Ry
     estimated scf accuracy    <       0.00016075 Ry

     iteration #  4     ecut=    90.00 Ry     beta= 0.70
     Davidson diagonalization with overlap
     ethr =  2.51E-07,  avg # of iterations =  2.3

     total cpu time spent up to now is      345.0 secs

     total energy              =    -278.69621306 Ry
     estimated scf accuracy    <       0.00002242 Ry

     iteration #  5     ecut=    90.00 Ry     beta= 0.70
     Davidson diagonalization with overlap
     ethr =  3.50E-08,  avg # of iterations =  2.9

     total cpu time spent up to now is      355.5 secs

     total energy              =    -278.69622055 Ry
     estimated scf accuracy    <       0.00000101 Ry

     iteration #  6     ecut=    90.00 Ry     beta= 0.70
     Davidson diagonalization with overlap
     ethr =  1.58E-09,  avg # of iterations =  2.7

     total cpu time spent up to now is      365.6 secs

     total energy              =    -278.69622058 Ry
     estimated scf accuracy    <       0.00000049 Ry

     iteration #  7     ecut=    90.00 Ry     beta= 0.70
     Davidson diagonalization with overlap
     ethr =  7.69E-10,  avg # of iterations =  3.8

     total cpu time spent up to now is      376.5 secs

     total energy              =    -278.69622074 Ry
     estimated scf accuracy    <       0.00000008 Ry

     iteration #  8     ecut=    90.00 Ry     beta= 0.70
     Davidson diagonalization with overlap
     ethr =  1.30E-10,  avg # of iterations =  2.1

     total cpu time spent up to now is      384.4 secs

     End of self-consistent calculation

     Number of k-points >= 100: set verbosity='high' to print the bands.

     highest occupied level (ev):    -3.3832

!    total energy              =    -278.69622074 Ry
     estimated scf accuracy    <       0.00000001 Ry

     The total energy is the sum of the following terms:
     one-electron contribution =    -227.57036156 Ry
     hartree contribution      =     135.62121133 Ry
     xc contribution           =     -70.56487638 Ry
     ewald contribution        =    -116.18219412 Ry

     convergence has been achieved in   8 iterations

     Forces acting on atoms (cartesian axes, Ry/au):

     atom    1 type  2   force =     0.00000000   -0.01277463    0.00524952
     atom    2 type  2   force =     0.00000000    0.01280352    0.00515145
     atom    3 type  2   force =     0.00000000   -0.01277465    0.00524939
     atom    4 type  2   force =     0.00000000    0.01280355    0.00515146
     atom    5 type  2   force =     0.00000000   -0.01739060    0.02429571
     atom    6 type  2   force =     0.00000000    0.01735111    0.02420606
     atom    7 type  2   force =     0.00000000   -0.01739063    0.02429572
     atom    8 type  2   force =     0.00000000    0.01735108    0.02420601
     atom    9 type  1   force =     0.00000000    0.00272978   -0.00668123
     atom   10 type  1   force =     0.00000000   -0.00272242   -0.00663133
     atom   11 type  1   force =     0.00000000    0.00272975   -0.00668118
     atom   12 type  1   force =     0.00000000   -0.00272243   -0.00663132
     atom   13 type  1   force =     0.00000000    0.01583946   -0.00137645
     atom   14 type  1   force =     0.00000000   -0.01587227   -0.00134746
     atom   15 type  1   force =     0.00000000    0.01583951   -0.00137641
     atom   16 type  1   force =     0.00000000   -0.01587227   -0.00134747
     atom   17 type  1   force =    -0.01902699    0.00569359   -0.01072162
     atom   18 type  1   force =     0.01901124   -0.00567556   -0.01071150
     atom   19 type  1   force =    -0.01901124   -0.00567556   -0.01071150
     atom   20 type  1   force =     0.01902699    0.00569359   -0.01072162
     atom   21 type  1   force =    -0.01902703    0.00569360   -0.01072162
     atom   22 type  1   force =     0.01901127   -0.00567555   -0.01071150
     atom   23 type  1   force =    -0.01901127   -0.00567555   -0.01071150
     atom   24 type  1   force =     0.01902703    0.00569360   -0.01072162

     Total force =     0.098046     Total SCF correction =     0.000119


     Computing stress (Cartesian axis) and pressure

          total   stress  (Ry/bohr**3)                   (kbar)     P=       -0.75
  -0.00007518   0.00000000   0.00000000          -11.06        0.00        0.00
   0.00000000  -0.00000626   0.00000011            0.00       -0.92        0.02
   0.00000000   0.00000011   0.00006623            0.00        0.02        9.74

     Energy error            =      3.7E-02 Ry
     Gradient error          =      2.4E-02 Ry/Bohr

     number of scf cycles    =   3
     number of bfgs steps    =   2

     energy             old  =    -278.6592078223 Ry
     energy             new  =    -278.6962207412 Ry

     CASE: energy            _new < energy            _old

     new trust radius        =       0.0386234944 bohr
     new conv_thr            =       0.0000000243 Ry


ATOMIC_POSITIONS (crystal)
O                0.0000000000        0.6639178690        0.0595373755
O                0.0000000000        0.3360809517        0.5595348343
O                0.5000000000        0.1639178551        0.0595373787
O                0.5000000000        0.8360809450        0.5595348323
O                0.5000000000        0.8315678982        0.9336947799
O                0.5000000000        0.1684371798        0.4336783520
O                0.0000000000        0.3315678976        0.9336947898
O                0.0000000000        0.6684371876        0.4336783581
H                0.0000000000        0.6637869894        0.1997149292
H                0.0000000000        0.3362122562        0.6997275221
H                0.5000000000        0.1637869829        0.1997149422
H                0.5000000000        0.8362122532        0.6997275195
H                0.0000000000        0.5380758179        0.0179760603
H                0.0000000000        0.4619198608        0.5179797257
H                0.5000000000        0.0380758076        0.0179760626
H                0.5000000000        0.9619198532        0.5179797266
H                0.6841965935        0.7711534761        0.9835392455
H                0.3158031044        0.2288471209        0.4835389695
H                0.6841968956        0.2288471209        0.4835389695
H                0.3158034065        0.7711534761        0.9835392455
H                0.1841965960        0.2711534747        0.9835392487
H                0.8158030954        0.7288471256        0.4835389749
H                0.1841969046        0.7288471256        0.4835389749
H                0.8158034040        0.2711534747        0.9835392487



     Writing config-only to output data dir ./iceIh_vdw/iceIh_vdw.save/ :
     XML data file
     NEW-OLD atomic charge density approx. for the potential

     total cpu time spent up to now is      393.6 secs

     per-process dynamical memory:    56.9 Mb

     Self-consistent Calculation

     iteration #  1     ecut=    90.00 Ry     beta= 0.70
     Davidson diagonalization with overlap
     ethr =  1.00E-06,  avg # of iterations =  7.0

     total cpu time spent up to now is      412.9 secs

     total energy              =    -278.69878210 Ry
     estimated scf accuracy    <       0.00435105 Ry

     iteration #  2     ecut=    90.00 Ry     beta= 0.70
     Davidson diagonalization with overlap
     ethr =  6.80E-06,  avg # of iterations =  3.0

     total cpu time spent up to now is      423.8 secs

     total energy              =    -278.69992914 Ry
     estimated scf accuracy    <       0.00198766 Ry

     iteration #  3     ecut=    90.00 Ry     beta= 0.70
     Davidson diagonalization with overlap
     ethr =  3.11E-06,  avg # of iterations =  2.0

     total cpu time spent up to now is      432.3 secs

     total energy              =    -278.70030057 Ry
     estimated scf accuracy    <       0.00005953 Ry

     iteration #  4     ecut=    90.00 Ry     beta= 0.70
     Davidson diagonalization with overlap
     ethr =  9.30E-08,  avg # of iterations =  4.0

     total cpu time spent up to now is      444.7 secs

     total energy              =    -278.70033581 Ry
     estimated scf accuracy    <       0.00004635 Ry

     iteration #  5     ecut=    90.00 Ry     beta= 0.70
     Davidson diagonalization with overlap
     ethr =  7.24E-08,  avg # of iterations =  2.0

     total cpu time spent up to now is      453.4 secs

     total energy              =    -278.70033857 Ry
     estimated scf accuracy    <       0.00000632 Ry

     iteration #  6     ecut=    90.00 Ry     beta= 0.70
     Davidson diagonalization with overlap
     ethr =  9.87E-09,  avg # of iterations =  4.0

     total cpu time spent up to now is      465.2 secs

     total energy              =    -278.70034122 Ry
     estimated scf accuracy    <       0.00000398 Ry

     iteration #  7     ecut=    90.00 Ry     beta= 0.70
     Davidson diagonalization with overlap
     ethr =  6.22E-09,  avg # of iterations =  2.0

     total cpu time spent up to now is      473.5 secs

     total energy              =    -278.70034160 Ry
     estimated scf accuracy    <       0.00000029 Ry

     iteration #  8     ecut=    90.00 Ry     beta= 0.70
     Davidson diagonalization with overlap
     ethr =  4.46E-10,  avg # of iterations =  4.0

     total cpu time spent up to now is      485.2 secs

     total energy              =    -278.70034174 Ry
     estimated scf accuracy    <       0.00000003 Ry

     iteration #  9     ecut=    90.00 Ry     beta= 0.70
     Davidson diagonalization with overlap
     ethr =  4.61E-11,  avg # of iterations =  2.0

     total cpu time spent up to now is      493.8 secs

     End of self-consistent calculation

     Number of k-points >= 100: set verbosity='high' to print the bands.

     highest occupied level (ev):    -3.4316

!    total energy              =    -278.70034174 Ry
     estimated scf accuracy    <          8.5E-09 Ry

     The total energy is the sum of the following terms:
     one-electron contribution =    -229.67831477 Ry
     hartree contribution      =     136.56750709 Ry
     xc contribution           =     -70.77584459 Ry
     ewald contribution        =    -114.81368947 Ry

     convergence has been achieved in   9 iterations

     Forces acting on atoms (cartesian axes, Ry/au):

     atom    1 type  2   force =     0.00000000    0.00501569   -0.00057523
     atom    2 type  2   force =     0.00000000   -0.00502560   -0.00039804
     atom    3 type  2   force =     0.00000000    0.00501574   -0.00057514
     atom    4 type  2   force =     0.00000000   -0.00502559   -0.00039804
     atom    5 type  2   force =     0.00000000    0.01551126   -0.00553186
     atom    6 type  2   force =     0.00000000   -0.01552217   -0.00574998
     atom    7 type  2   force =     0.00000000    0.01551128   -0.00553187
     atom    8 type  2   force =     0.00000000   -0.01552216   -0.00574998
     atom    9 type  1   force =     0.00000000   -0.00021737    0.00168261
     atom   10 type  1   force =     0.00000000    0.00022544    0.00161118
     atom   11 type  1   force =     0.00000000   -0.00021738    0.00168251
     atom   12 type  1   force =     0.00000000    0.00022543    0.00161119
     atom   13 type  1   force =     0.00000000   -0.00020686   -0.00234377
     atom   14 type  1   force =     0.00000000    0.00025105   -0.00235349
     atom   15 type  1   force =     0.00000000   -0.00020689   -0.00234377
     atom   16 type  1   force =     0.00000000    0.00025106   -0.00235351
     atom   17 type  1   force =     0.00499804   -0.01055928    0.00342336
     atom   18 type  1   force =    -0.00496668    0.01054356    0.00340593
     atom   19 type  1   force =     0.00496668    0.01054356    0.00340593
     atom   20 type  1   force =    -0.00499804   -0.01055928    0.00342336
     atom   21 type  1   force =     0.00499804   -0.01055929    0.00342337
     atom   22 type  1   force =    -0.00496665    0.01054355    0.00340592
     atom   23 type  1   force =     0.00496665    0.01054355    0.00340592
     atom   24 type  1   force =    -0.00499804   -0.01055929    0.00342337

     Total force =     0.049072     Total SCF correction =     0.000055


     Computing stress (Cartesian axis) and pressure

          total   stress  (Ry/bohr**3)                   (kbar)     P=       23.04
   0.00014496   0.00000000   0.00000000           21.32        0.00        0.00
   0.00000000   0.00016433  -0.00000002            0.00       24.17       -0.00
   0.00000000  -0.00000002   0.00016051            0.00       -0.00       23.61

     Energy error            =      4.1E-03 Ry
     Gradient error          =      1.6E-02 Ry/Bohr

     number of scf cycles    =   4
     number of bfgs steps    =   3

     energy             old  =    -278.6962207412 Ry
     energy             new  =    -278.7003417396 Ry

     CASE: energy            _new < energy            _old

     new trust radius        =       0.0123367497 bohr
     new conv_thr            =       0.0000000155 Ry


ATOMIC_POSITIONS (crystal)
O                0.0000000000        0.6642244633        0.0595225984
O                0.0000000000        0.3357737909        0.5595298751
O                0.5000000000        0.1642244525        0.0595226069
O                0.5000000000        0.8357737843        0.5595298731
O                0.5000000000        0.8323699102        0.9333762481
O                0.5000000000        0.1676346452        0.4333482206
O                0.0000000000        0.3323699110        0.9333762573
O                0.0000000000        0.6676346534        0.4333482268
H                0.0000000000        0.6637733254        0.1998072934
H                0.0000000000        0.3362263222        0.6998159567
H                0.5000000000        0.1637733183        0.1998073009
H                0.5000000000        0.8362263188        0.6998159548
H                0.0000000000        0.5380204168        0.0178371388
H                0.0000000000        0.4619775570        0.5178402506
H                0.5000000000        0.0380204049        0.0178371409
H                0.5000000000        0.9619775499        0.5178402508
H                0.6846729958        0.7706077524        0.9837312265
H                0.3153295097        0.2293920404        0.4837299873
H                0.6846704903        0.2293920404        0.4837299873
H                0.3153270042        0.7706077524        0.9837312265
H                0.1846729985        0.2706077505        0.9837312301
H                0.8153295037        0.7293920447        0.4837299924
H                0.1846704963        0.7293920447        0.4837299924
H                0.8153270015        0.2706077505        0.9837312301



     Writing config-only to output data dir ./iceIh_vdw/iceIh_vdw.save/ :
     XML data file
     NEW-OLD atomic charge density approx. for the potential

     total cpu time spent up to now is      502.9 secs

     per-process dynamical memory:    56.9 Mb

     Self-consistent Calculation

     iteration #  1     ecut=    90.00 Ry     beta= 0.70
     Davidson diagonalization with overlap
     ethr =  1.00E-06,  avg # of iterations =  4.0

     total cpu time spent up to now is      516.3 secs

     total energy              =    -278.70129309 Ry
     estimated scf accuracy    <       0.00033640 Ry

     iteration #  2     ecut=    90.00 Ry     beta= 0.70
     Davidson diagonalization with overlap
     ethr =  5.26E-07,  avg # of iterations =  3.0

     total cpu time spent up to now is      527.0 secs

     total energy              =    -278.70137462 Ry
     estimated scf accuracy    <       0.00016232 Ry

     iteration #  3     ecut=    90.00 Ry     beta= 0.70
     Davidson diagonalization with overlap
     ethr =  2.54E-07,  avg # of iterations =  2.3

     total cpu time spent up to now is      536.2 secs

     total energy              =    -278.70140763 Ry
     estimated scf accuracy    <       0.00000391 Ry

     iteration #  4     ecut=    90.00 Ry     beta= 0.70
     Davidson diagonalization with overlap
     ethr =  6.11E-09,  avg # of iterations =  4.1

     total cpu time spent up to now is      549.1 secs

     total energy              =    -278.70140982 Ry
     estimated scf accuracy    <       0.00000404 Ry

     iteration #  5     ecut=    90.00 Ry     beta= 0.70
     Davidson diagonalization with overlap
     ethr =  6.11E-09,  avg # of iterations =  2.0

     total cpu time spent up to now is      557.8 secs

     total energy              =    -278.70141001 Ry
     estimated scf accuracy    <       0.00000056 Ry

     iteration #  6     ecut=    90.00 Ry     beta= 0.70
     Davidson diagonalization with overlap
     ethr =  8.73E-10,  avg # of iterations =  3.7

     total cpu time spent up to now is      569.9 secs

     total energy              =    -278.70141026 Ry
     estimated scf accuracy    <       0.00000032 Ry

     iteration #  7     ecut=    90.00 Ry     beta= 0.70
     Davidson diagonalization with overlap
     ethr =  4.99E-10,  avg # of iterations =  2.0

     total cpu time spent up to now is      578.0 secs

     total energy              =    -278.70141029 Ry
     estimated scf accuracy    <       0.00000003 Ry

     iteration #  8     ecut=    90.00 Ry     beta= 0.70
     Davidson diagonalization with overlap
     ethr =  4.94E-11,  avg # of iterations =  3.1

     total cpu time spent up to now is      588.9 secs

     End of self-consistent calculation

     Number of k-points >= 100: set verbosity='high' to print the bands.

     highest occupied level (ev):    -3.4259

!    total energy              =    -278.70141030 Ry
     estimated scf accuracy    <          1.5E-09 Ry

     The total energy is the sum of the following terms:
     one-electron contribution =    -229.15582733 Ry
     hartree contribution      =     136.33219470 Ry
     xc contribution           =     -70.72278872 Ry
     ewald contribution        =    -115.15498894 Ry

     convergence has been achieved in   8 iterations

     Forces acting on atoms (cartesian axes, Ry/au):

     atom    1 type  2   force =     0.00000000    0.00183351   -0.00129228
     atom    2 type  2   force =     0.00000000   -0.00180136   -0.00129026
     atom    3 type  2   force =     0.00000000    0.00183350   -0.00129232
     atom    4 type  2   force =     0.00000000   -0.00180136   -0.00129026
     atom    5 type  2   force =     0.00000000    0.00339033    0.00348724
     atom    6 type  2   force =     0.00000000   -0.00336508    0.00329942
     atom    7 type  2   force =     0.00000000    0.00339032    0.00348723
     atom    8 type  2   force =     0.00000000   -0.00336509    0.00329940
     atom    9 type  1   force =     0.00000000    0.00013706    0.00142036
     atom   10 type  1   force =     0.00000000   -0.00012484    0.00148991
     atom   11 type  1   force =     0.00000000    0.00013705    0.00142036
     atom   12 type  1   force =     0.00000000   -0.00012485    0.00148991
     atom   13 type  1   force =     0.00000000    0.00254343   -0.00171064
     atom   14 type  1   force =     0.00000000   -0.00255519   -0.00169545
     atom   15 type  1   force =     0.00000000    0.00254346   -0.00171062
     atom   16 type  1   force =     0.00000000   -0.00255518   -0.00169546
     atom   17 type  1   force =    -0.00207120   -0.00444964   -0.00091071
     atom   18 type  1   force =     0.00211120    0.00442071   -0.00094342
     atom   19 type  1   force =    -0.00211120    0.00442071   -0.00094342
     atom   20 type  1   force =     0.00207120   -0.00444964   -0.00091071
     atom   21 type  1   force =    -0.00207121   -0.00444964   -0.00091071
     atom   22 type  1   force =     0.00211121    0.00442071   -0.00094342
     atom   23 type  1   force =    -0.00211121    0.00442071   -0.00094342
     atom   24 type  1   force =     0.00207121   -0.00444964   -0.00091071

     Total force =     0.018894     Total SCF correction =     0.000028


     Computing stress (Cartesian axis) and pressure

          total   stress  (Ry/bohr**3)                   (kbar)     P=       16.85
   0.00007929   0.00000000   0.00000000           11.66        0.00        0.00
   0.00000000   0.00012191   0.00000000            0.00       17.93        0.00
   0.00000000   0.00000000   0.00014248            0.00        0.00       20.96

     Energy error            =      1.1E-03 Ry
     Gradient error          =      4.4E-03 Ry/Bohr

     number of scf cycles    =   5
     number of bfgs steps    =   4

     energy             old  =    -278.7003417396 Ry
     energy             new  =    -278.7014102989 Ry

     CASE: energy            _new < energy            _old

     new trust radius        =       0.0078194097 bohr
     new conv_thr            =       0.0000000044 Ry


ATOMIC_POSITIONS (crystal)
O                0.0000000000        0.6644708249        0.0594575782
O                0.0000000000        0.3355300808        0.5594676732
O                0.5000000000        0.1644708141        0.0594575842
O                0.5000000000        0.8355300747        0.5594676719
O                0.5000000000        0.8328057280        0.9337120796
O                0.5000000000        0.1672006632        0.4336634289
O                0.0000000000        0.3328057290        0.9337120883
O                0.0000000000        0.6672006701        0.4336634330
H                0.0000000000        0.6637904660        0.1999197696
H                0.0000000000        0.3362103703        0.6999337464
H                0.5000000000        0.1637904579        0.1999197761
H                0.5000000000        0.8362103661        0.6999337451
H                0.0000000000        0.5382402982        0.0176215915
H                0.0000000000        0.4617572530        0.5176260252
H                0.5000000000        0.0382402885        0.0176215950
H                0.5000000000        0.9617572467        0.5176260243
H                0.6843647182        0.7700976945        0.9836517612
H                0.3156444465        0.2298994714        0.4836472981
H                0.6843555535        0.2298994714        0.4836472981
H                0.3156352818        0.7700976945        0.9836517612
H                0.1843647191        0.2700976925        0.9836517653
H                0.8156444434        0.7298994757        0.4836473031
H                0.1843555566        0.7298994757        0.4836473031
H                0.8156352809        0.2700976925        0.9836517653



     Writing config-only to output data dir ./iceIh_vdw/iceIh_vdw.save/ :
     XML data file
     NEW-OLD atomic charge density approx. for the potential

     total cpu time spent up to now is      598.3 secs

     per-process dynamical memory:    56.9 Mb

     Self-consistent Calculation

     iteration #  1     ecut=    90.00 Ry     beta= 0.70
     Davidson diagonalization with overlap
     ethr =  1.00E-06,  avg # of iterations =  3.0

     Threshold (ethr) on eigenvalues was too large:
     Diagonalizing with lowered threshold

     Davidson diagonalization with overlap
     ethr =  7.90E-08,  avg # of iterations =  2.0

     total cpu time spent up to now is      617.4 secs

     total energy              =    -278.70184541 Ry
     estimated scf accuracy    <       0.00005559 Ry

     iteration #  2     ecut=    90.00 Ry     beta= 0.70
     Davidson diagonalization with overlap
     ethr =  8.69E-08,  avg # of iterations =  2.0

     total cpu time spent up to now is      626.8 secs

     total energy              =    -278.70185486 Ry
     estimated scf accuracy    <       0.00000568 Ry

     iteration #  3     ecut=    90.00 Ry     beta= 0.70
     Davidson diagonalization with overlap
     ethr =  8.88E-09,  avg # of iterations =  2.0

     total cpu time spent up to now is      636.2 secs

     total energy              =    -278.70185630 Ry
     estimated scf accuracy    <       0.00000045 Ry

     iteration #  4     ecut=    90.00 Ry     beta= 0.70
     Davidson diagonalization with overlap
     ethr =  6.98E-10,  avg # of iterations =  2.0

     total cpu time spent up to now is      644.1 secs

     total energy              =    -278.70185635 Ry
     estimated scf accuracy    <       0.00000004 Ry

     iteration #  5     ecut=    90.00 Ry     beta= 0.70
     Davidson diagonalization with overlap
     ethr =  6.61E-11,  avg # of iterations =  3.0

     total cpu time spent up to now is      654.7 secs

     total energy              =    -278.70185636 Ry
     estimated scf accuracy    <       0.00000002 Ry

     iteration #  6     ecut=    90.00 Ry     beta= 0.70
     Davidson diagonalization with overlap
     ethr =  2.45E-11,  avg # of iterations =  2.0

     total cpu time spent up to now is      663.1 secs

     End of self-consistent calculation

     Number of k-points >= 100: set verbosity='high' to print the bands.

     highest occupied level (ev):    -3.4278

!    total energy              =    -278.70185636 Ry
     estimated scf accuracy    <          2.0E-09 Ry

     The total energy is the sum of the following terms:
     one-electron contribution =    -229.05129085 Ry
     hartree contribution      =     136.28545469 Ry
     xc contribution           =     -70.71169270 Ry
     ewald contribution        =    -115.22432750 Ry

     convergence has been achieved in   6 iterations

     Forces acting on atoms (cartesian axes, Ry/au):

     atom    1 type  2   force =     0.00000000    0.00109535    0.00018543
     atom    2 type  2   force =     0.00000000   -0.00110395    0.00023949
     atom    3 type  2   force =     0.00000000    0.00109536    0.00018543
     atom    4 type  2   force =     0.00000000   -0.00110394    0.00023949
     atom    5 type  2   force =     0.00000000   -0.00000319    0.00444502
     atom    6 type  2   force =     0.00000000    0.00006527    0.00427867
     atom    7 type  2   force =     0.00000000   -0.00000319    0.00444501
     atom    8 type  2   force =     0.00000000    0.00006526    0.00427866
     atom    9 type  1   force =     0.00000000    0.00015019   -0.00024302
     atom   10 type  1   force =     0.00000000   -0.00013462   -0.00019696
     atom   11 type  1   force =     0.00000000    0.00015019   -0.00024303
     atom   12 type  1   force =     0.00000000   -0.00013462   -0.00019696
     atom   13 type  1   force =     0.00000000    0.00275322   -0.00120174
     atom   14 type  1   force =     0.00000000   -0.00274983   -0.00119625
     atom   15 type  1   force =     0.00000000    0.00275322   -0.00120174
     atom   16 type  1   force =     0.00000000   -0.00274983   -0.00119625
     atom   17 type  1   force =    -0.00227701   -0.00253541   -0.00155476
     atom   18 type  1   force =     0.00231288    0.00249918   -0.00160056
     atom   19 type  1   force =    -0.00231288    0.00249918   -0.00160056
     atom   20 type  1   force =     0.00227701   -0.00253541   -0.00155476
     atom   21 type  1   force =    -0.00227701   -0.00253541   -0.00155476
     atom   22 type  1   force =     0.00231289    0.00249918   -0.00160056
     atom   23 type  1   force =    -0.00231289    0.00249918   -0.00160056
     atom   24 type  1   force =     0.00227701   -0.00253541   -0.00155476

     Total force =     0.015173     Total SCF correction =     0.000065


     Computing stress (Cartesian axis) and pressure

          total   stress  (Ry/bohr**3)                   (kbar)     P=       15.72
   0.00007618   0.00000000   0.00000000           11.21        0.00        0.00
   0.00000000   0.00011623  -0.00000002            0.00       17.10       -0.00
   0.00000000  -0.00000002   0.00012813            0.00       -0.00       18.85

     Energy error            =      4.5E-04 Ry
     Gradient error          =      4.4E-03 Ry/Bohr

     number of scf cycles    =   6
     number of bfgs steps    =   5

     energy             old  =    -278.7014102989 Ry
     energy             new  =    -278.7018563609 Ry

     CASE: energy            _new < energy            _old

     new trust radius        =       0.0086013507 bohr
     new conv_thr            =       0.0000000044 Ry


ATOMIC_POSITIONS (crystal)
O                0.0000000000        0.6647150152        0.0594874100
O                0.0000000000        0.3352859401        0.5595061941
O                0.5000000000        0.1647150068        0.0594874160
O                0.5000000000        0.8352859350        0.5595061930
O                0.5000000000        0.8331375567        0.9342167998
O                0.5000000000        0.1668742288        0.4341425343
O                0.0000000000        0.3331375581        0.9342168079
O                0.0000000000        0.6668742347        0.4341425366
H                0.0000000000        0.6638144430        0.1999285722
H                0.0000000000        0.3361882376        0.6999471702
H                0.5000000000        0.1638144338        0.1999285760
H                0.5000000000        0.8361882328        0.6999471698
H                0.0000000000        0.5385671621        0.0173866397
H                0.0000000000        0.4614312030        0.5173919141
H                0.5000000000        0.0385671528        0.0173866439
H                0.5000000000        0.9614311971        0.5173919123
H                0.6839562033        0.7695640923        0.9835031138
H                0.3160611274        0.2304290223        0.4834932756
H                0.6839388726        0.2304290223        0.4834932756
H                0.3160437967        0.7695640923        0.9835031138
H                0.1839562028        0.2695640902        0.9835031183
H                0.8160611274        0.7304290264        0.4834932803
H                0.1839388726        0.7304290264        0.4834932803
H                0.8160437972        0.2695640902        0.9835031183



     Writing config-only to output data dir ./iceIh_vdw/iceIh_vdw.save/ :
     XML data file
     NEW-OLD atomic charge density approx. for the potential

     total cpu time spent up to now is      673.0 secs

     per-process dynamical memory:    56.9 Mb

     Self-consistent Calculation

     iteration #  1     ecut=    90.00 Ry     beta= 0.70
     Davidson diagonalization with overlap
     ethr =  1.00E-06,  avg # of iterations =  3.0

     Threshold (ethr) on eigenvalues was too large:
     Diagonalizing with lowered threshold

     Davidson diagonalization with overlap
     ethr =  7.51E-08,  avg # of iterations =  2.0

     total cpu time spent up to now is      692.6 secs

     total energy              =    -278.70220684 Ry
     estimated scf accuracy    <       0.00005480 Ry

     iteration #  2     ecut=    90.00 Ry     beta= 0.70
     Davidson diagonalization with overlap
     ethr =  8.56E-08,  avg # of iterations =  2.0

     total cpu time spent up to now is      700.7 secs

     total energy              =    -278.70221412 Ry
     estimated scf accuracy    <       0.00000217 Ry

     iteration #  3     ecut=    90.00 Ry     beta= 0.70
     Davidson diagonalization with overlap
     ethr =  3.39E-09,  avg # of iterations =  2.9

     total cpu time spent up to now is      710.9 secs

     total energy              =    -278.70221464 Ry
     estimated scf accuracy    <       0.00000051 Ry

     iteration #  4     ecut=    90.00 Ry     beta= 0.70
     Davidson diagonalization with overlap
     ethr =  8.04E-10,  avg # of iterations =  3.0

     total cpu time spent up to now is      720.6 secs

     total energy              =    -278.70221477 Ry
     estimated scf accuracy    <       0.00000009 Ry

     iteration #  5     ecut=    90.00 Ry     beta= 0.70
     Davidson diagonalization with overlap
     ethr =  1.47E-10,  avg # of iterations =  2.2

     total cpu time spent up to now is      729.7 secs

     total energy              =    -278.70221479 Ry
     estimated scf accuracy    <          5.8E-09 Ry

     iteration #  6     ecut=    90.00 Ry     beta= 0.70
     Davidson diagonalization with overlap
     ethr =  9.00E-12,  avg # of iterations =  4.1

     total cpu time spent up to now is      740.5 secs

     End of self-consistent calculation

     Number of k-points >= 100: set verbosity='high' to print the bands.

     highest occupied level (ev):    -3.4330

!    total energy              =    -278.70221479 Ry
     estimated scf accuracy    <          7.7E-10 Ry

     The total energy is the sum of the following terms:
     one-electron contribution =    -229.06393709 Ry
     hartree contribution      =     136.29049239 Ry
     xc contribution           =     -70.71222634 Ry
     ewald contribution        =    -115.21654375 Ry

     convergence has been achieved in   6 iterations

     Forces acting on atoms (cartesian axes, Ry/au):

     atom    1 type  2   force =     0.00000000    0.00088900   -0.00013236
     atom    2 type  2   force =     0.00000000   -0.00086105   -0.00010376
     atom    3 type  2   force =     0.00000000    0.00088899   -0.00013240
     atom    4 type  2   force =     0.00000000   -0.00086105   -0.00010376
     atom    5 type  2   force =     0.00000000   -0.00177717    0.00395684
     atom    6 type  2   force =     0.00000000    0.00182861    0.00378287
     atom    7 type  2   force =     0.00000000   -0.00177718    0.00395684
     atom    8 type  2   force =     0.00000000    0.00182860    0.00378286
     atom    9 type  1   force =     0.00000000    0.00003359   -0.00017734
     atom   10 type  1   force =     0.00000000   -0.00001622   -0.00008919
     atom   11 type  1   force =     0.00000000    0.00003359   -0.00017733
     atom   12 type  1   force =     0.00000000   -0.00001622   -0.00008920
     atom   13 type  1   force =     0.00000000    0.00230502   -0.00064467
     atom   14 type  1   force =     0.00000000   -0.00234483   -0.00062822
     atom   15 type  1   force =     0.00000000    0.00230503   -0.00064467
     atom   16 type  1   force =     0.00000000   -0.00234482   -0.00062821
     atom   17 type  1   force =    -0.00146822   -0.00131937   -0.00146646
     atom   18 type  1   force =     0.00148121    0.00129090   -0.00151562
     atom   19 type  1   force =    -0.00148121    0.00129090   -0.00151562
     atom   20 type  1   force =     0.00146822   -0.00131937   -0.00146646
     atom   21 type  1   force =    -0.00146823   -0.00131937   -0.00146646
     atom   22 type  1   force =     0.00148121    0.00129090   -0.00151562
     atom   23 type  1   force =    -0.00148121    0.00129090   -0.00151562
     atom   24 type  1   force =     0.00146823   -0.00131937   -0.00146646

     Total force =     0.012174     Total SCF correction =     0.000069


     Computing stress (Cartesian axis) and pressure

          total   stress  (Ry/bohr**3)                   (kbar)     P=       15.81
   0.00008253   0.00000000   0.00000000           12.14        0.00        0.00
   0.00000000   0.00011574   0.00000002            0.00       17.03        0.00
   0.00000000   0.00000002   0.00012409            0.00        0.00       18.25

     Energy error            =      3.6E-04 Ry
     Gradient error          =      4.0E-03 Ry/Bohr

     number of scf cycles    =   7
     number of bfgs steps    =   6

     energy             old  =    -278.7018563609 Ry
     energy             new  =    -278.7022147884 Ry

     CASE: energy            _new < energy            _old

     new trust radius        =       0.0129020260 bohr
     new conv_thr            =       0.0000000036 Ry


ATOMIC_POSITIONS (crystal)
O                0.0000000000        0.6651255630        0.0594800644
O                0.0000000000        0.3348808523        0.5595111321
O                0.5000000000        0.1651255548        0.0594800659
O                0.5000000000        0.8348808478        0.5595111321
O                0.5000000000        0.8334426644        0.9351110288
O                0.5000000000        0.1665784672        0.4349869027
O                0.0000000000        0.3334426656        0.9351110360
O                0.0000000000        0.6665784714        0.4349869018
H                0.0000000000        0.6638399336        0.1999545288
H                0.0000000000        0.3361666021        0.6999892721
H                0.5000000000        0.1638399234        0.1999545322
H                0.5000000000        0.8361665967        0.6999892720
H                0.0000000000        0.5391326340        0.0170467387
H                0.0000000000        0.4608605640        0.5170553900
H                0.5000000000        0.0391326278        0.0170467439
H                0.5000000000        0.9608605596        0.5170553872
H                0.6833882072        0.7687674097        0.9832267067
H                0.3166386841        0.2312189575        0.4832057730
H                0.6833613159        0.2312189575        0.4832057730
H                0.3166117928        0.7687674097        0.9832267067
H                0.1833882045        0.2687674078        0.9832267118
H                0.8166386870        0.7312189612        0.4832057771
H                0.1833613130        0.7312189612        0.4832057771
H                0.8166117955        0.2687674078        0.9832267118



     Writing config-only to output data dir ./iceIh_vdw/iceIh_vdw.save/ :
     XML data file
     NEW-OLD atomic charge density approx. for the potential

     total cpu time spent up to now is      749.7 secs

     per-process dynamical memory:    56.9 Mb

     Self-consistent Calculation

     iteration #  1     ecut=    90.00 Ry     beta= 0.70
     Davidson diagonalization with overlap
     ethr =  1.00E-06,  avg # of iterations =  4.0

     total cpu time spent up to now is      763.0 secs

     total energy              =    -278.70249360 Ry
     estimated scf accuracy    <       0.00013162 Ry

     iteration #  2     ecut=    90.00 Ry     beta= 0.70
     Davidson diagonalization with overlap
     ethr =  2.06E-07,  avg # of iterations =  2.0

     total cpu time spent up to now is      771.8 secs

     total energy              =    -278.70251137 Ry
     estimated scf accuracy    <       0.00001608 Ry

     iteration #  3     ecut=    90.00 Ry     beta= 0.70
     Davidson diagonalization with overlap
     ethr =  2.51E-08,  avg # of iterations =  3.0

     total cpu time spent up to now is      782.5 secs

     total energy              =    -278.70251541 Ry
     estimated scf accuracy    <       0.00000611 Ry

     iteration #  4     ecut=    90.00 Ry     beta= 0.70
     Davidson diagonalization with overlap
     ethr =  9.54E-09,  avg # of iterations =  2.3

     total cpu time spent up to now is      791.1 secs

     total energy              =    -278.70251650 Ry
     estimated scf accuracy    <       0.00000015 Ry

     iteration #  5     ecut=    90.00 Ry     beta= 0.70
     Davidson diagonalization with overlap
     ethr =  2.35E-10,  avg # of iterations =  5.4

     total cpu time spent up to now is      805.9 secs

     total energy              =    -278.70251656 Ry
     estimated scf accuracy    <       0.00000038 Ry

     iteration #  6     ecut=    90.00 Ry     beta= 0.70
     Davidson diagonalization with overlap
     ethr =  2.35E-10,  avg # of iterations =  3.2

     total cpu time spent up to now is      817.1 secs

     End of self-consistent calculation

     Number of k-points >= 100: set verbosity='high' to print the bands.

     highest occupied level (ev):    -3.4418

!    total energy              =    -278.70251663 Ry
     estimated scf accuracy    <          2.2E-09 Ry

     The total energy is the sum of the following terms:
     one-electron contribution =    -229.12601925 Ry
     hartree contribution      =     136.31841717 Ry
     xc contribution           =     -70.71777609 Ry
     ewald contribution        =    -115.17713846 Ry

     convergence has been achieved in   6 iterations

     Forces acting on atoms (cartesian axes, Ry/au):

     atom    1 type  2   force =     0.00000000    0.00060886    0.00036761
     atom    2 type  2   force =     0.00000000   -0.00063951    0.00049840
     atom    3 type  2   force =     0.00000000    0.00060889    0.00036764
     atom    4 type  2   force =     0.00000000   -0.00063950    0.00049839
     atom    5 type  2   force =     0.00000000   -0.00263945    0.00180256
     atom    6 type  2   force =     0.00000000    0.00269700    0.00168494
     atom    7 type  2   force =     0.00000000   -0.00263945    0.00180256
     atom    8 type  2   force =     0.00000000    0.00269700    0.00168495
     atom    9 type  1   force =     0.00000000   -0.00001680   -0.00071344
     atom   10 type  1   force =     0.00000000    0.00004141   -0.00066833
     atom   11 type  1   force =     0.00000000   -0.00001679   -0.00071346
     atom   12 type  1   force =     0.00000000    0.00004142   -0.00066833
     atom   13 type  1   force =     0.00000000    0.00131786    0.00001902
     atom   14 type  1   force =     0.00000000   -0.00130896    0.00001944
     atom   15 type  1   force =     0.00000000    0.00131783    0.00001900
     atom   16 type  1   force =     0.00000000   -0.00130897    0.00001945
     atom   17 type  1   force =     0.00036378   -0.00028895   -0.00071592
     atom   18 type  1   force =    -0.00035593    0.00025874   -0.00078918
     atom   19 type  1   force =     0.00035593    0.00025874   -0.00078918
     atom   20 type  1   force =    -0.00036378   -0.00028895   -0.00071592
     atom   21 type  1   force =     0.00036378   -0.00028895   -0.00071592
     atom   22 type  1   force =    -0.00035594    0.00025874   -0.00078918
     atom   23 type  1   force =     0.00035594    0.00025874   -0.00078918
     atom   24 type  1   force =    -0.00036378   -0.00028895   -0.00071592

     Total force =     0.007614     Total SCF correction =     0.000120


     Computing stress (Cartesian axis) and pressure

          total   stress  (Ry/bohr**3)                   (kbar)     P=       16.58
   0.00010120   0.00000000   0.00000000           14.89        0.00        0.00
   0.00000000   0.00012092  -0.00000001            0.00       17.79       -0.00
   0.00000000  -0.00000001   0.00011603            0.00       -0.00       17.07

     Energy error            =      3.0E-04 Ry
     Gradient error          =      2.7E-03 Ry/Bohr

     number of scf cycles    =   8
     number of bfgs steps    =   7

     energy             old  =    -278.7022147884 Ry
     energy             new  =    -278.7025166319 Ry

     CASE: energy            _new < energy            _old

     new trust radius        =       0.0055487177 bohr
     new conv_thr            =       0.0000000027 Ry


ATOMIC_POSITIONS (crystal)
O                0.0000000000        0.6653201871        0.0595017899
O                0.0000000000        0.3346849294        0.5595498482
O                0.5000000000        0.1653201819        0.0595017940
O                0.5000000000        0.8346849261        0.5595498473
O                0.5000000000        0.8334016937        0.9355205230
O                0.5000000000        0.1666269455        0.4353695371
O                0.0000000000        0.3334016952        0.9355205297
O                0.0000000000        0.6666269496        0.4353695358
H                0.0000000000        0.6638479300        0.1999134845
H                0.0000000000        0.3361619673        0.6999566410
H                0.5000000000        0.1638479200        0.1999134853
H                0.5000000000        0.8361619622        0.6999566417
H                0.0000000000        0.5394263057        0.0169288722
H                0.0000000000        0.4605667725        0.5169384686
H                0.5000000000        0.0394262982        0.0169288758
H                0.5000000000        0.9605667677        0.5169384663
H                0.6833003658        0.7684373593        0.9830958061
H                0.3167311176        0.2315442819        0.4830646209
H                0.6832688824        0.2315442819        0.4830646209
H                0.3166996342        0.7684373593        0.9830958061
H                0.1833003634        0.2684373576        0.9830958114
H                0.8167311207        0.7315442851        0.4830646243
H                0.1832688793        0.7315442851        0.4830646243
H                0.8166996366        0.2684373576        0.9830958114



     Writing config-only to output data dir ./iceIh_vdw/iceIh_vdw.save/ :
     XML data file
     NEW-OLD atomic charge density approx. for the potential

     total cpu time spent up to now is      826.6 secs

     per-process dynamical memory:    56.9 Mb

     Self-consistent Calculation

     iteration #  1     ecut=    90.00 Ry     beta= 0.70
     Davidson diagonalization with overlap
     ethr =  1.00E-06,  avg # of iterations =  3.0

     Threshold (ethr) on eigenvalues was too large:
     Diagonalizing with lowered threshold

     Davidson diagonalization with overlap
     ethr =  4.43E-08,  avg # of iterations =  2.2

     total cpu time spent up to now is      845.9 secs

     total energy              =    -278.70257381 Ry
     estimated scf accuracy    <       0.00003137 Ry

     iteration #  2     ecut=    90.00 Ry     beta= 0.70
     Davidson diagonalization with overlap
     ethr =  4.90E-08,  avg # of iterations =  2.5

     total cpu time spent up to now is      855.5 secs

     total energy              =    -278.70257864 Ry
     estimated scf accuracy    <       0.00000765 Ry

     iteration #  3     ecut=    90.00 Ry     beta= 0.70
     Davidson diagonalization with overlap
     ethr =  1.20E-08,  avg # of iterations =  2.9

     total cpu time spent up to now is      865.7 secs

     total energy              =    -278.70258077 Ry
     estimated scf accuracy    <       0.00000074 Ry

     iteration #  4     ecut=    90.00 Ry     beta= 0.70
     Davidson diagonalization with overlap
     ethr =  1.15E-09,  avg # of iterations =  2.0

     total cpu time spent up to now is      873.4 secs

     total energy              =    -278.70258081 Ry
     estimated scf accuracy    <       0.00000009 Ry

     iteration #  5     ecut=    90.00 Ry     beta= 0.70
     Davidson diagonalization with overlap
     ethr =  1.42E-10,  avg # of iterations =  3.9

     total cpu time spent up to now is      884.4 secs

     total energy              =    -278.70258085 Ry
     estimated scf accuracy    <       0.00000003 Ry

     iteration #  6     ecut=    90.00 Ry     beta= 0.70
     Davidson diagonalization with overlap
     ethr =  4.02E-11,  avg # of iterations =  2.1

     total cpu time spent up to now is      892.5 secs

     total energy              =    -278.70258085 Ry
     estimated scf accuracy    <          2.9E-09 Ry

     iteration #  7     ecut=    90.00 Ry     beta= 0.70
     Davidson diagonalization with overlap
     ethr =  4.59E-12,  avg # of iterations =  4.7

     total cpu time spent up to now is      904.5 secs

     End of self-consistent calculation

     Number of k-points >= 100: set verbosity='high' to print the bands.

     highest occupied level (ev):    -3.4466

!    total energy              =    -278.70258085 Ry
     estimated scf accuracy    <          1.4E-09 Ry

     The total energy is the sum of the following terms:
     one-electron contribution =    -229.18197940 Ry
     hartree contribution      =     136.34360937 Ry
     xc contribution           =     -70.72324287 Ry
     ewald contribution        =    -115.14096795 Ry

     convergence has been achieved in   7 iterations

     Forces acting on atoms (cartesian axes, Ry/au):

     atom    1 type  2   force =     0.00000000    0.00050910   -0.00005704
     atom    2 type  2   force =     0.00000000   -0.00047203   -0.00004015
     atom    3 type  2   force =     0.00000000    0.00050907   -0.00005708
     atom    4 type  2   force =     0.00000000   -0.00047204   -0.00004014
     atom    5 type  2   force =     0.00000000   -0.00206341    0.00046538
     atom    6 type  2   force =     0.00000000    0.00208236    0.00034613
     atom    7 type  2   force =     0.00000000   -0.00206342    0.00046538
     atom    8 type  2   force =     0.00000000    0.00208236    0.00034613
     atom    9 type  1   force =     0.00000000    0.00002603   -0.00014989
     atom   10 type  1   force =     0.00000000    0.00000375   -0.00002387
     atom   11 type  1   force =     0.00000000    0.00002604   -0.00014986
     atom   12 type  1   force =     0.00000000    0.00000375   -0.00002388
     atom   13 type  1   force =     0.00000000    0.00061111    0.00015099
     atom   14 type  1   force =     0.00000000   -0.00067117    0.00018242
     atom   15 type  1   force =     0.00000000    0.00061113    0.00015098
     atom   16 type  1   force =     0.00000000   -0.00067115    0.00018242
     atom   17 type  1   force =     0.00093253   -0.00020250   -0.00018583
     atom   18 type  1   force =    -0.00094899    0.00018962   -0.00025114
     atom   19 type  1   force =     0.00094899    0.00018962   -0.00025114
     atom   20 type  1   force =    -0.00093253   -0.00020250   -0.00018583
     atom   21 type  1   force =     0.00093254   -0.00020249   -0.00018584
     atom   22 type  1   force =    -0.00094900    0.00018962   -0.00025115
     atom   23 type  1   force =     0.00094900    0.00018962   -0.00025115
     atom   24 type  1   force =    -0.00093254   -0.00020249   -0.00018584

     Total force =     0.005331     Total SCF correction =     0.000023


     Computing stress (Cartesian axis) and pressure

          total   stress  (Ry/bohr**3)                   (kbar)     P=       17.20
   0.00010989   0.00000000   0.00000000           16.16        0.00        0.00
   0.00000000   0.00012406   0.00000010            0.00       18.25        0.01
   0.00000000   0.00000010   0.00011686            0.00        0.01       17.19

     Energy error            =      6.4E-05 Ry
     Gradient error          =      2.1E-03 Ry/Bohr

     number of scf cycles    =   9
     number of bfgs steps    =   8

     energy             old  =    -278.7025166319 Ry
     energy             new  =    -278.7025808505 Ry

     CASE: energy            _new < energy            _old

     new trust radius        =       0.0042188633 bohr
     new conv_thr            =       0.0000000010 Ry


ATOMIC_POSITIONS (crystal)
O                0.0000000000        0.6654704104        0.0594922690
O                0.0000000000        0.3345385769        0.5595489684
O                0.5000000000        0.1654704028        0.0594922696
O                0.5000000000        0.8345385727        0.5595489686
O                0.5000000000        0.8332105523        0.9357585700
O                0.5000000000        0.1668232199        0.4355813568
O                0.0000000000        0.3332105531        0.9357585766
O                0.0000000000        0.6668232237        0.4355813549
H                0.0000000000        0.6638552224        0.1998942157
H                0.0000000000        0.3361593223        0.6999557927
H                0.5000000000        0.1638552134        0.1998942191
H                0.5000000000        0.8361593180        0.6999557922
H                0.0000000000        0.5396302950        0.0168817905
H                0.0000000000        0.4603560639        0.5168955485
H                0.5000000000        0.0396302900        0.0168817935
H                0.5000000000        0.9603560603        0.5168955467
H                0.6834210469        0.7682359176        0.9830193685
H                0.3166097036        0.2317422573        0.4829763859
[...]


     Computing stress (Cartesian axis) and pressure

          total   stress  (Ry/bohr**3)                   (kbar)     P=       17.45
   0.00011428   0.00000000   0.00000000           16.81        0.00        0.00
   0.00000000   0.00012580   0.00000004            0.00       18.51        0.01
   0.00000000   0.00000004   0.00011576            0.00        0.01       17.03

     Energy error            =      3.8E-05 Ry
     Gradient error          =      1.1E-03 Ry/Bohr

     number of scf cycles    =  10
     number of bfgs steps    =   9

     energy             old  =    -278.7025808505 Ry
     energy             new  =    -278.7026192116 Ry

     CASE: energy            _new < energy            _old

     new trust radius        =       0.0040676568 bohr
     new conv_thr            =       0.0000000010 Ry


ATOMIC_POSITIONS (crystal)
O                0.0000000000        0.6655764537        0.0594873377
O                0.0000000000        0.3344276900        0.5595703147
O                0.5000000000        0.1655764497        0.0594873435
O                0.5000000000        0.8344276874        0.5595703126
O                0.5000000000        0.8329397897        0.9358434272
O                0.5000000000        0.1671014161        0.4356404951
O                0.0000000000        0.3329397908        0.9358434332
O                0.0000000000        0.6671014205        0.4356404940
H                0.0000000000        0.6638796450        0.1998829215
H                0.0000000000        0.3361413001        0.6999565239
H                0.5000000000        0.1638796370        0.1998829219
H                0.5000000000        0.8361412967        0.6999565244
H                0.0000000000        0.5397743104        0.0168716968
H                0.0000000000        0.4602112705        0.5168885411
H                0.5000000000        0.0397743025        0.0168716968
H                0.5000000000        0.9602112656        0.5168885409
H                0.6836676222        0.7680899679        0.9829942414
H                0.3163633661        0.2318841002        0.4829351405
H                0.6836366339        0.2318841002        0.4829351405
H                0.3163323778        0.7680899679        0.9829942414
H                0.1836676218        0.2680899669        0.9829942464
H                0.8163633660        0.7318841021        0.4829351422
H                0.1836366340        0.7318841021        0.4829351422
H                0.8163323782        0.2680899669        0.9829942464



     Writing config-only to output data dir ./iceIh_vdw/iceIh_vdw.save/ :
     XML data file
     NEW-OLD atomic charge density approx. for the potential

     total cpu time spent up to now is     1001.1 secs

     per-process dynamical memory:    57.1 Mb

     Self-consistent Calculation

     iteration #  1     ecut=    90.00 Ry     beta= 0.70
     Davidson diagonalization with overlap
     ethr =  1.00E-06,  avg # of iterations =  3.0

     Threshold (ethr) on eigenvalues was too large:
     Diagonalizing with lowered threshold

     Davidson diagonalization with overlap
     ethr =  1.63E-08,  avg # of iterations =  3.0

     total cpu time spent up to now is     1021.0 secs

     total energy              =    -278.70264166 Ry
     estimated scf accuracy    <       0.00001210 Ry

     iteration #  2     ecut=    90.00 Ry     beta= 0.70
     Davidson diagonalization with overlap
     ethr =  1.89E-08,  avg # of iterations =  3.0

     total cpu time spent up to now is     1031.1 secs

     total energy              =    -278.70264349 Ry
     estimated scf accuracy    <       0.00000436 Ry

     iteration #  3     ecut=    90.00 Ry     beta= 0.70
     Davidson diagonalization with overlap
     ethr =  6.82E-09,  avg # of iterations =  3.0

     total cpu time spent up to now is     1041.4 secs

     total energy              =    -278.70264475 Ry
     estimated scf accuracy    <       0.00000032 Ry

     iteration #  4     ecut=    90.00 Ry     beta= 0.70
     Davidson diagonalization with overlap
     ethr =  5.03E-10,  avg # of iterations =  2.0

     total cpu time spent up to now is     1049.0 secs

     total energy              =    -278.70264476 Ry
     estimated scf accuracy    <       0.00000006 Ry

     iteration #  5     ecut=    90.00 Ry     beta= 0.70
     Davidson diagonalization with overlap
     ethr =  8.68E-11,  avg # of iterations =  3.3

     total cpu time spent up to now is     1060.2 secs

     total energy              =    -278.70264478 Ry
     estimated scf accuracy    <       0.00000003 Ry

     iteration #  6     ecut=    90.00 Ry     beta= 0.70
     Davidson diagonalization with overlap
     ethr =  4.01E-11,  avg # of iterations =  2.3

     total cpu time spent up to now is     1068.5 secs

     total energy              =    -278.70264478 Ry
     estimated scf accuracy    <          1.3E-09 Ry

     iteration #  7     ecut=    90.00 Ry     beta= 0.70
     Davidson diagonalization with overlap
     ethr =  2.10E-12,  avg # of iterations =  4.8

     total cpu time spent up to now is     1081.1 secs

     End of self-consistent calculation

     Number of k-points >= 100: set verbosity='high' to print the bands.

     highest occupied level (ev):    -3.4510

!    total energy              =    -278.70264478 Ry
     estimated scf accuracy    <          2.3E-10 Ry

     The total energy is the sum of the following terms:
     one-electron contribution =    -229.20551025 Ry
     hartree contribution      =     136.35476278 Ry
     xc contribution           =     -70.72581286 Ry
     ewald contribution        =    -115.12608445 Ry

     convergence has been achieved in   7 iterations

     Forces acting on atoms (cartesian axes, Ry/au):

     atom    1 type  2   force =     0.00000000    0.00000840   -0.00000873
     atom    2 type  2   force =     0.00000000    0.00006844   -0.00006856
     atom    3 type  2   force =     0.00000000    0.00000834   -0.00000880
     atom    4 type  2   force =     0.00000000    0.00006841   -0.00006853
     atom    5 type  2   force =     0.00000000   -0.00036849   -0.00094624
     atom    6 type  2   force =     0.00000000    0.00035633   -0.00105037
     atom    7 type  2   force =     0.00000000   -0.00036850   -0.00094623
     atom    8 type  2   force =     0.00000000    0.00035632   -0.00105037
     atom    9 type  1   force =     0.00000000    0.00031668    0.00030086
     atom   10 type  1   force =     0.00000000   -0.00028446    0.00046219
     atom   11 type  1   force =     0.00000000    0.00031668    0.00030091
     atom   12 type  1   force =     0.00000000   -0.00028446    0.00046217
     atom   13 type  1   force =     0.00000000   -0.00024281   -0.00004518
     atom   14 type  1   force =     0.00000000    0.00014190    0.00001208
     atom   15 type  1   force =     0.00000000   -0.00024275   -0.00004516
     atom   16 type  1   force =     0.00000000    0.00014193    0.00001207
     atom   17 type  1   force =     0.00032189   -0.00047209    0.00036082
     atom   18 type  1   force =    -0.00033587    0.00047410    0.00031115
     atom   19 type  1   force =     0.00033587    0.00047410    0.00031115
     atom   20 type  1   force =    -0.00032189   -0.00047209    0.00036082
     atom   21 type  1   force =     0.00032189   -0.00047209    0.00036082
     atom   22 type  1   force =    -0.00033588    0.00047410    0.00031115
     atom   23 type  1   force =     0.00033588    0.00047410    0.00031115
     atom   24 type  1   force =    -0.00032189   -0.00047209    0.00036082

     Total force =     0.003040     Total SCF correction =     0.000010


     Computing stress (Cartesian axis) and pressure

          total   stress  (Ry/bohr**3)                   (kbar)     P=       17.40
   0.00011391   0.00000000   0.00000000           16.76        0.00        0.00
   0.00000000   0.00012501   0.00000019            0.00       18.39        0.03
   0.00000000   0.00000019   0.00011595            0.00        0.03       17.06

     Energy error            =      2.6E-05 Ry
     Gradient error          =      1.1E-03 Ry/Bohr

     number of scf cycles    =  11
     number of bfgs steps    =  10

     energy             old  =    -278.7026192116 Ry
     energy             new  =    -278.7026447831 Ry

     CASE: energy            _new < energy            _old

     new trust radius        =       0.0030177417 bohr
     new conv_thr            =       0.0000000010 Ry


ATOMIC_POSITIONS (crystal)
O                0.0000000000        0.6656092592        0.0594873541
O                0.0000000000        0.3344014520        0.5595724372
O                0.5000000000        0.1656092503        0.0594873531
O                0.5000000000        0.8344014469        0.5595724382
O                0.5000000000        0.8327445991        0.9357847599
O                0.5000000000        0.1672982976        0.4355613284
O                0.0000000000        0.3327445991        0.9357847663
O                0.0000000000        0.6672983013        0.4355613267
H                0.0000000000        0.6639181194        0.1999005801
H                0.0000000000        0.3361085035        0.6999973216
H                0.5000000000        0.1639181121        0.1999005854
H                0.5000000000        0.8361085005        0.6999973197
H                0.0000000000        0.5398030087        0.0168755387
H                0.0000000000        0.4601713694        0.5168998730
H                0.5000000000        0.0398030056        0.0168755393
H                0.5000000000        0.9601713670        0.5168998725
H                0.6838230242        0.7680212696        0.9830155185
H                0.3162051792        0.2319514317        0.4829448965
H                0.6837948208        0.2319514317        0.4829448965
H                0.3161769758        0.7680212696        0.9830155185
H                0.1838230235        0.2680212693        0.9830155232
H                0.8162051772        0.7319514336        0.4829448977
H                0.1837948228        0.7319514336        0.4829448977
H                0.8161769765        0.2680212693        0.9830155232



     Writing config-only to output data dir ./iceIh_vdw/iceIh_vdw.save/ :
     XML data file
     NEW-OLD atomic charge density approx. for the potential

     total cpu time spent up to now is     1090.5 secs

     per-process dynamical memory:    57.1 Mb

     Self-consistent Calculation

     iteration #  1     ecut=    90.00 Ry     beta= 0.70
     Davidson diagonalization with overlap
     ethr =  1.00E-06,  avg # of iterations =  2.0

     Threshold (ethr) on eigenvalues was too large:
     Diagonalizing with lowered threshold

     Davidson diagonalization with overlap
     ethr =  5.19E-09,  avg # of iterations =  3.1

     total cpu time spent up to now is     1110.2 secs

     total energy              =    -278.70265559 Ry
     estimated scf accuracy    <       0.00000447 Ry

     iteration #  2     ecut=    90.00 Ry     beta= 0.70
     Davidson diagonalization with overlap
     ethr =  6.98E-09,  avg # of iterations =  2.3

     total cpu time spent up to now is     1119.4 secs

     total energy              =    -278.70265636 Ry
     estimated scf accuracy    <       0.00000071 Ry

     iteration #  3     ecut=    90.00 Ry     beta= 0.70
     Davidson diagonalization with overlap
     ethr =  1.10E-09,  avg # of iterations =  3.2

     total cpu time spent up to now is     1129.9 secs

     total energy              =    -278.70265656 Ry
     estimated scf accuracy    <       0.00000012 Ry

     iteration #  4     ecut=    90.00 Ry     beta= 0.70
     Davidson diagonalization with overlap
     ethr =  1.83E-10,  avg # of iterations =  2.2

     total cpu time spent up to now is     1138.0 secs

     total energy              =    -278.70265658 Ry
     estimated scf accuracy    <          5.5E-09 Ry

     iteration #  5     ecut=    90.00 Ry     beta= 0.70
     Davidson diagonalization with overlap
     ethr =  8.59E-12,  avg # of iterations =  4.6

     total cpu time spent up to now is     1150.6 secs

     total energy              =    -278.70265658 Ry
     estimated scf accuracy    <          5.5E-09 Ry

     iteration #  6     ecut=    90.00 Ry     beta= 0.70
     Davidson diagonalization with overlap
     ethr =  8.57E-12,  avg # of iterations =  2.0

     total cpu time spent up to now is     1158.9 secs

     End of self-consistent calculation

     Number of k-points >= 100: set verbosity='high' to print the bands.

     highest occupied level (ev):    -3.4508

!    total energy              =    -278.70265658 Ry
     estimated scf accuracy    <          3.8E-10 Ry

     The total energy is the sum of the following terms:
     one-electron contribution =    -229.18340179 Ry
     hartree contribution      =     136.34494714 Ry
     xc contribution           =     -70.72375873 Ry
     ewald contribution        =    -115.14044320 Ry

     convergence has been achieved in   6 iterations

     Forces acting on atoms (cartesian axes, Ry/au):

     atom    1 type  2   force =     0.00000000   -0.00027470    0.00000471
     atom    2 type  2   force =     0.00000000    0.00016864    0.00022727
     atom    3 type  2   force =     0.00000000   -0.00027463    0.00000479
     atom    4 type  2   force =     0.00000000    0.00016868    0.00022723
     atom    5 type  2   force =     0.00000000   -0.00014461   -0.00080742
     atom    6 type  2   force =     0.00000000    0.00017328   -0.00085952
     atom    7 type  2   force =     0.00000000   -0.00014459   -0.00080743
     atom    8 type  2   force =     0.00000000    0.00017329   -0.00085951
     atom    9 type  1   force =     0.00000000    0.00035760    0.00029873
     atom   10 type  1   force =     0.00000000   -0.00032778    0.00024773
     atom   11 type  1   force =     0.00000000    0.00035760    0.00029867
     atom   12 type  1   force =     0.00000000   -0.00032778    0.00024776
     atom   13 type  1   force =     0.00000000   -0.00020024   -0.00005839
     atom   14 type  1   force =     0.00000000    0.00027334   -0.00006069
     atom   15 type  1   force =     0.00000000   -0.00020030   -0.00005841
     atom   16 type  1   force =     0.00000000    0.00027331   -0.00006068
     atom   17 type  1   force =    -0.00016879   -0.00045838    0.00028309
     atom   18 type  1   force =     0.00019219    0.00044560    0.00022070
     atom   19 type  1   force =    -0.00019219    0.00044560    0.00022070
     atom   20 type  1   force =     0.00016879   -0.00045838    0.00028309
     atom   21 type  1   force =    -0.00016878   -0.00045839    0.00028309
     atom   22 type  1   force =     0.00019220    0.00044560    0.00022070
     atom   23 type  1   force =    -0.00019220    0.00044560    0.00022070
     atom   24 type  1   force =     0.00016878   -0.00045839    0.00028309

     Total force =     0.002573     Total SCF correction =     0.000025


     Computing stress (Cartesian axis) and pressure

          total   stress  (Ry/bohr**3)                   (kbar)     P=       17.13
   0.00011163   0.00000000   0.00000000           16.42        0.00        0.00
   0.00000000   0.00012299   0.00000002            0.00       18.09        0.00
   0.00000000   0.00000002   0.00011474            0.00        0.00       16.88

     Energy error            =      1.2E-05 Ry
     Gradient error          =      8.6E-04 Ry/Bohr

     bfgs converged in  12 scf cycles and  11 bfgs steps
     (criteria: energy <  1.0E-04 Ry, force <  1.0E-03 Ry/Bohr)

     End of BFGS Geometry Optimization

     Final energy             =    -278.7026565815 Ry

     File ./iceIh_vdw/iceIh_vdw.bfgs deleted, as requested
Begin final coordinates

ATOMIC_POSITIONS (crystal)
O                0.0000000000        0.6656092592        0.0594873541
O                0.0000000000        0.3344014520        0.5595724372
O                0.5000000000        0.1656092503        0.0594873531
O                0.5000000000        0.8344014469        0.5595724382
O                0.5000000000        0.8327445991        0.9357847599
O                0.5000000000        0.1672982976        0.4355613284
O                0.0000000000        0.3327445991        0.9357847663
O                0.0000000000        0.6672983013        0.4355613267
H                0.0000000000        0.6639181194        0.1999005801
H                0.0000000000        0.3361085035        0.6999973216
H                0.5000000000        0.1639181121        0.1999005854
H                0.5000000000        0.8361085005        0.6999973197
H                0.0000000000        0.5398030087        0.0168755387
H                0.0000000000        0.4601713694        0.5168998730
H                0.5000000000        0.0398030056        0.0168755393
H                0.5000000000        0.9601713670        0.5168998725
H                0.6838230242        0.7680212696        0.9830155185
H                0.3162051792        0.2319514317        0.4829448965
H                0.6837948208        0.2319514317        0.4829448965
H                0.3161769758        0.7680212696        0.9830155185
H                0.1838230235        0.2680212693        0.9830155232
H                0.8162051772        0.7319514336        0.4829448977
H                0.1837948228        0.7319514336        0.4829448977
H                0.8161769765        0.2680212693        0.9830155232
End final coordinates



     Writing all to output data dir ./iceIh_vdw/iceIh_vdw.save/ :
     XML data file, charge density, pseudopotentials, collected wavefunctions

     init_run     :      5.97s CPU      6.07s WALL (       1 calls)
     electrons    :   1034.29s CPU   1052.06s WALL (      12 calls)
     update_pot   :      0.67s CPU      0.78s WALL (      11 calls)
     forces       :      6.56s CPU      6.59s WALL (      12 calls)
     stress       :     98.64s CPU     98.76s WALL (      12 calls)

     Called by init_run:
     wfcinit      :      4.06s CPU      4.10s WALL (       1 calls)
     potinit      :      1.58s CPU      1.62s WALL (       1 calls)
     hinit0       :      0.25s CPU      0.26s WALL (       1 calls)

     Called by electrons:
     c_bands      :    920.23s CPU    934.69s WALL (     100 calls)
     sum_band     :    107.77s CPU    108.84s WALL (     100 calls)
     v_of_rho     :      7.83s CPU      8.56s WALL (     106 calls)
     newd         :      0.22s CPU      0.27s WALL (     106 calls)
     mix_rho      :      0.18s CPU      0.18s WALL (     100 calls)
     vdW_kernel   :      1.50s CPU      1.52s WALL (       1 calls)

     Called by c_bands:
     init_us_2    :     12.65s CPU     13.10s WALL (   25875 calls)
     cegterg      :    889.17s CPU    897.12s WALL (   11500 calls)

     Called by *egterg:
     cdiaghg      :     78.67s CPU     79.04s WALL (   45186 calls)
     h_psi        :    667.05s CPU    674.01s WALL (   47256 calls)
     s_psi        :     26.75s CPU     26.93s WALL (   47256 calls)
     g_psi        :      2.32s CPU      2.33s WALL (   35641 calls)

     Called by h_psi:
     h_psi:calbec :     43.22s CPU     43.60s WALL (   47256 calls)
     vloc_psi     :    591.18s CPU    597.43s WALL (   47256 calls)
     add_vuspsi   :     28.29s CPU     28.52s WALL (   47256 calls)

     General routines
     calbec       :     59.24s CPU     59.77s WALL (   65656 calls)
     fft          :      3.76s CPU      3.85s WALL (    7107 calls)
     ffts         :      0.05s CPU      0.05s WALL (     100 calls)
     fftw         :    619.81s CPU    626.19s WALL ( 2749988 calls)

     Parallel routines

     PWSCF        :  19m10.46s CPU  19m38.38s WALL


   This run was terminated on:  21:31:33   1Apr2026            

=------------------------------------------------------------------------------=
   JOB DONE.
=------------------------------------------------------------------------------=
