
     Program PWSCF v.7.3.1 starts on 26Mar2026 at 16:43:52 

     This program is part of the open-source Quantum ESPRESSO suite
     for quantum simulation of materials; please cite
         "P. Giannozzi et al., J. Phys.:Condens. Matter 21 395502 (2009);
         "P. Giannozzi et al., J. Phys.:Condens. Matter 29 465901 (2017);
         "P. Giannozzi et al., J. Chem. Phys. 152 154105 (2020);
          URL http://www.quantum-espresso.org", 
     in publications or presentations arising from this work. More details at
     http://www.quantum-espresso.org/quote

     Parallel version (MPI), running on   128 processors

     MPI processes distributed on     1 nodes
     237189 MiB available memory on the printing compute node when the environment starts

     Waiting for input...
     Reading input from standard input

     Current dimensions of program PWSCF are:
     Max number of different atomic species (ntypx) = 10
     Max number of k-points (npk) =  40000
     Max angular momentum in pseudopotentials (lmaxx) =  4

     IMPORTANT: XC functional enforced from input :
     Exchange-correlation= VDW-DF2
                           (   1   4  13   0   2   0   0)
     Any further DFT definition will be discarded
     Please, verify this is what you really want

     Found identity + ( -0.5000 -0.5000 -0.0000) symmetry
     This is a supercell, fractional translations are disabled

     K-points division:     npool     =       4
     R & G space division:  proc/nbgrp/npool/nimage =      32
     Subspace diagonalization in iterative solution of the eigenvalue problem:
     a serial algorithm will be used


     Parallelization info
     --------------------
     sticks:   dense  smooth     PW     G-vecs:    dense   smooth      PW
     Min         108     108     29                 5888     5888     853
     Max         109     109     30                 5891     5891     858
     Sum        3465    3465    955               188485   188485   27377

     Using Slab Decomposition



     bravais-lattice index     =            8
     lattice parameter (alat)  =       8.3374  a.u.
     unit-cell volume          =    1633.9882 (a.u.)^3
     number of atoms/cell      =           24
     number of atomic types    =            2
     number of electrons       =        64.00
     number of Kohn-Sham states=           32
     kinetic-energy cutoff     =      90.0000  Ry
     charge density cutoff     =     360.0000  Ry
     scf convergence threshold =      1.0E-07
     mixing beta               =       0.7000
     number of iterations used =            8  plain     mixing
     Exchange-correlation= VDW-DF2
                           (   1   4  13   0   2   0   0)

     celldm(1)=   8.337395  celldm(2)=   1.732119  celldm(3)=   1.627721
     celldm(4)=   0.000000  celldm(5)=   0.000000  celldm(6)=   0.000000

     crystal axes: (cart. coord. in units of alat)
               a(1) = (   1.000000   0.000000   0.000000 )  
               a(2) = (   0.000000   1.732119   0.000000 )  
               a(3) = (   0.000000   0.000000   1.627721 )  

     reciprocal axes: (cart. coord. in units 2 pi/alat)
               b(1) = (  1.000000  0.000000  0.000000 )  
               b(2) = (  0.000000  0.577328  0.000000 )  
               b(3) = (  0.000000  0.000000  0.614356 )  


     PseudoPot. # 1 for H  read from file:
     ./H.pbe-van_ak.UPF
     MD5 check sum: 077eb6d537518a38cb46c6de387227b7
     Pseudo is Ultrasoft, Zval =  1.0
     Generated by new atomic code, or converted to UPF format
     Using radial grid of  615 points,  1 beta functions with: 
                l(1) =   0
     Q(r) pseudized with  8 coefficients,  rinner =    0.800

     PseudoPot. # 2 for O  read from file:
     ./O.pbe-van_ak.UPF
     MD5 check sum: 78c19812648e8988a0fe644b0f25305e
     Pseudo is Ultrasoft, Zval =  6.0
     Generated by new atomic code, or converted to UPF format
     Using radial grid of  737 points,  4 beta functions with: 
                l(1) =   0
                l(2) =   0
                l(3) =   1
                l(4) =   1
     Q(r) pseudized with  8 coefficients,  rinner =    0.800   0.800   0.800


     atomic species   valence    mass     pseudopotential
     H                 1.00     1.00800     H ( 1.00)
     O                 6.00    16.00000     O ( 1.00)

      2 Sym. Ops. (no inversion) found



   Cartesian axes

     site n.     atom                  positions (alat units)
         1        O      tau(   1) = (   0.0000000   1.1505053   0.0983911  )
         2        O      tau(   2) = (   0.0000000   0.5816137   0.9122516  )
         3        O      tau(   3) = (   0.5000000   0.2844458   0.0983911  )
         4        O      tau(   4) = (   0.5000000   1.4476733   0.9122516  )
         5        O      tau(   5) = (   0.5000000   1.4413210   1.5245781  )
         6        O      tau(   6) = (   0.5000000   0.2907980   0.7107175  )
         7        O      tau(   7) = (   0.0000000   0.5752615   1.5245780  )
         8        O      tau(   8) = (   0.0000000   1.1568575   0.7107175  )
         9        H      tau(   9) = (   0.0000000   1.1476935   0.3199225  )
        10        H      tau(  10) = (   0.0000000   0.5844255   1.1337830  )
        11        H      tau(  11) = (   0.5000000   0.2816340   0.3199225  )
        12        H      tau(  12) = (   0.5000000   1.4504851   1.1337830  )
        13        H      tau(  13) = (   0.0000000   0.9389577   0.0320281  )
        14        H      tau(  14) = (   0.0000000   0.7931613   0.8458886  )
        15        H      tau(  15) = (   0.5000000   0.0728982   0.0320281  )
        16        H      tau(  16) = (   0.5000000   1.6592209   0.8458886  )
        17        H      tau(  17) = (   0.6777387   1.3318248   1.5989889  )
        18        H      tau(  18) = (   0.3222613   0.4002942   0.7851284  )
        19        H      tau(  19) = (   0.6777387   0.4002942   0.7851284  )
        20        H      tau(  20) = (   0.3222613   1.3318248   1.5989889  )
        21        H      tau(  21) = (   0.1777387   0.4657653   1.5989889  )
        22        H      tau(  22) = (   0.8222613   1.2663538   0.7851284  )
        23        H      tau(  23) = (   0.1777387   1.2663538   0.7851284  )
        24        H      tau(  24) = (   0.8222613   0.4657653   1.5989889  )

     number of k points=   460

     Number of k-points >= 100: set verbosity='high' to print them.

     Dense  grid:   188485 G-vectors     FFT dimensions: (  54,  90,  81)

     Estimated max dynamical RAM per process >      49.47 MB

     Estimated total dynamical RAM >       6.05 GB

     Initial potential from superposition of free atoms

     starting charge      63.9998, renormalised to      64.0000


     %%%%%%%%%%%%%%%%%%%%%%%%%%%%%%%%%%%%%%%%%%%%%%%%%%%%%%%%%%%%%%%%%%%%%%%%
     %                                                                      %
     % You are using vdW-DF, which was implemented by the Thonhauser group. %
     % Please cite the following two papers that made this development      %
     % possible and the two reviews that describe the various versions:     %
     %                                                                      %
     %   T. Thonhauser et al., PRL 115, 136402 (2015).                      %
     %   T. Thonhauser et al., PRB 76, 125112 (2007).                       %
     %   K. Berland et al., Rep. Prog. Phys. 78, 066501 (2015).             %
     %   D.C. Langreth et al., J. Phys.: Condens. Matter 21, 084203 (2009). %
     %                                                                      %
     % If you are calculating stress with vdW-DF, please also cite:         %
     %                                                                      %
     %   R. Sabatini et al., J. Phys.: Condens. Matter 24, 424209 (2012).   %
     %                                                                      %
     %%%%%%%%%%%%%%%%%%%%%%%%%%%%%%%%%%%%%%%%%%%%%%%%%%%%%%%%%%%%%%%%%%%%%%%%

     %%%%%%%%%%%%%%%%%%%%%%%%%%%%%%%%%%%%%%%%%%%%%%%%%%%%%%%%%%%%%%%%%%%%%%%%
     %                                                                      %
     %  vdW-DF NEWS:                                                        %
     %                                                                      %
     %  * vdW-DF3 is now available. DOI: 10.1021/acs.jctc.0c00471           %
     %    use with input_dft = 'vdW-DF3-opt1' or 'vdW-DF3-opt2'             %
     %                                                                      %
     %  * Unscreened and range-separated hybrid vdW-DF-cx functionals       %
     %    DOI: 10.1063/1.4986522 and 10.1088/1361-648X/ac2ad2               %
     %    use with input_dft = 'vdW-DF-cx0'    and 'vdW-DF-ahcx'            %
     %  * Unscreened and range-separated hybrid vdW-DF2-b86r functionals    %
     %    DOI: 10.1063/1.4986522 and DOI: 10.1103/PhysRevX.12.041003        %
     %    use with input_dft = 'vdW-DF2-br0' and 'vdW-DF2-ahbr'             %
     %                                                                      %
     %%%%%%%%%%%%%%%%%%%%%%%%%%%%%%%%%%%%%%%%%%%%%%%%%%%%%%%%%%%%%%%%%%%%%%%%


     Starting wfcs are   48 randomized atomic wfcs

     total cpu time spent up to now is        6.5 secs

     per-process dynamical memory:    56.8 Mb

     Self-consistent Calculation

     iteration #  1     ecut=    90.00 Ry     beta= 0.70
     Davidson diagonalization with overlap
     ethr =  1.00E-02,  avg # of iterations =  2.0

     total cpu time spent up to now is       15.7 secs

     total energy              =    -277.26550708 Ry
     estimated scf accuracy    <       3.27285042 Ry

     iteration #  2     ecut=    90.00 Ry     beta= 0.70
     Davidson diagonalization with overlap
     ethr =  5.11E-03,  avg # of iterations =  3.0

     total cpu time spent up to now is       28.0 secs

     total energy              =    -278.32317507 Ry
     estimated scf accuracy    <       2.15594890 Ry

     iteration #  3     ecut=    90.00 Ry     beta= 0.70
     Davidson diagonalization with overlap
     ethr =  3.37E-03,  avg # of iterations =  2.0

     total cpu time spent up to now is       37.4 secs

     total energy              =    -278.62615335 Ry
     estimated scf accuracy    <       0.08258564 Ry

     iteration #  4     ecut=    90.00 Ry     beta= 0.70
     Davidson diagonalization with overlap
     ethr =  1.29E-04,  avg # of iterations =  4.0

     total cpu time spent up to now is       51.5 secs

     total energy              =    -278.69015980 Ry
     estimated scf accuracy    <       0.10981682 Ry

     iteration #  5     ecut=    90.00 Ry     beta= 0.70
     Davidson diagonalization with overlap
     ethr =  1.29E-04,  avg # of iterations =  2.0

     total cpu time spent up to now is       59.8 secs

     total energy              =    -278.69094138 Ry
     estimated scf accuracy    <       0.01547605 Ry

     iteration #  6     ecut=    90.00 Ry     beta= 0.70
     Davidson diagonalization with overlap
     ethr =  2.42E-05,  avg # of iterations =  2.0

     total cpu time spent up to now is       69.7 secs

     total energy              =    -278.69623157 Ry
     estimated scf accuracy    <       0.00010888 Ry

     iteration #  7     ecut=    90.00 Ry     beta= 0.70
     Davidson diagonalization with overlap
     ethr =  1.70E-07,  avg # of iterations =  6.0

     total cpu time spent up to now is       86.4 secs

     total energy              =    -278.69677142 Ry
     estimated scf accuracy    <       0.00247624 Ry

     iteration #  8     ecut=    90.00 Ry     beta= 0.70
     Davidson diagonalization with overlap
     ethr =  1.70E-07,  avg # of iterations =  1.0

     total cpu time spent up to now is       93.2 secs

     total energy              =    -278.69593405 Ry
     estimated scf accuracy    <       0.00215317 Ry

     iteration #  9     ecut=    90.00 Ry     beta= 0.70
     Davidson diagonalization with overlap
     ethr =  1.70E-07,  avg # of iterations =  4.0

     total cpu time spent up to now is      107.8 secs

     total energy              =    -278.69615762 Ry
     estimated scf accuracy    <       0.00015471 Ry

     iteration # 10     ecut=    90.00 Ry     beta= 0.70
     Davidson diagonalization with overlap
     ethr =  1.70E-07,  avg # of iterations =  1.0

     total cpu time spent up to now is      114.6 secs

     total energy              =    -278.69611045 Ry
     estimated scf accuracy    <       0.00008701 Ry

     iteration # 11     ecut=    90.00 Ry     beta= 0.70
     Davidson diagonalization with overlap
     ethr =  1.36E-07,  avg # of iterations =  2.0

     total cpu time spent up to now is      124.6 secs

     total energy              =    -278.69614186 Ry
     estimated scf accuracy    <       0.00001237 Ry

     iteration # 12     ecut=    90.00 Ry     beta= 0.70
     Davidson diagonalization with overlap
     ethr =  1.93E-08,  avg # of iterations =  2.0

     total cpu time spent up to now is      134.0 secs

     End of self-consistent calculation

     Number of k-points >= 100: set verbosity='high' to print the bands.

     highest occupied level (ev):    -3.6435

!    total energy              =    -278.69614348 Ry
     estimated scf accuracy    <       0.00000009 Ry

     The total energy is the sum of the following terms:
     one-electron contribution =    -234.27350216 Ry
     hartree contribution      =     138.49874775 Ry
     xc contribution           =     -70.94912629 Ry
     ewald contribution        =    -111.97226278 Ry

     convergence has been achieved in  12 iterations

     Forces acting on atoms (cartesian axes, Ry/au):

     atom    1 type  2   force =     0.00000000    0.02810019   -0.02061600
     atom    2 type  2   force =     0.00000000   -0.02813042   -0.02066801
     atom    3 type  2   force =     0.00000000    0.02810032   -0.02061622
     atom    4 type  2   force =     0.00000000   -0.02813058   -0.02066816
     atom    5 type  2   force =     0.00000000    0.02782419   -0.02005899
     atom    6 type  2   force =     0.00000000   -0.02769822   -0.02007267
     atom    7 type  2   force =     0.00000000    0.02782400   -0.02005899
     atom    8 type  2   force =     0.00000000   -0.02769850   -0.02007296
     atom    9 type  1   force =     0.00000000    0.00170461    0.03208827
     atom   10 type  1   force =     0.00000000   -0.00173506    0.03219382
     atom   11 type  1   force =     0.00000000    0.00170461    0.03208811
     atom   12 type  1   force =     0.00000000   -0.00173506    0.03219378
     atom   13 type  1   force =     0.00000000   -0.02958603   -0.01137742
     atom   14 type  1   force =     0.00000000    0.02956799   -0.01136344
     atom   15 type  1   force =     0.00000000   -0.02958594   -0.01137741
     atom   16 type  1   force =     0.00000000    0.02956789   -0.01136342
     atom   17 type  1   force =     0.02675635   -0.01480590    0.00997161
     atom   18 type  1   force =    -0.02674892    0.01478248    0.00996588
     atom   19 type  1   force =     0.02674892    0.01478248    0.00996588
     atom   20 type  1   force =    -0.02675635   -0.01480590    0.00997161
     atom   21 type  1   force =     0.02675633   -0.01480591    0.00997160
     atom   22 type  1   force =    -0.02674868    0.01478232    0.00996577
     atom   23 type  1   force =     0.02674868    0.01478232    0.00996577
     atom   24 type  1   force =    -0.02675633   -0.01480591    0.00997160

     Total force =     0.161219     Total SCF correction =     0.000419


     Computing stress (Cartesian axis) and pressure

          total   stress  (Ry/bohr**3)                   (kbar)     P=       44.52
   0.00029410   0.00000000   0.00000000           43.26        0.00        0.00
   0.00000000   0.00031544   0.00000002            0.00       46.40        0.00
   0.00000000   0.00000002   0.00029840            0.00        0.00       43.90


     Writing all to output data dir ./iceIh/iceIh.save/ :
     XML data file, charge density, pseudopotentials, collected wavefunctions

     init_run     :      6.01s CPU      6.15s WALL (       1 calls)
     electrons    :    125.83s CPU    127.59s WALL (       1 calls)
     forces       :      0.56s CPU      0.58s WALL (       1 calls)
     stress       :      8.43s CPU      8.46s WALL (       1 calls)

     Called by init_run:
     wfcinit      :      4.11s CPU      4.17s WALL (       1 calls)
     potinit      :      1.57s CPU      1.62s WALL (       1 calls)
     hinit0       :      0.24s CPU      0.25s WALL (       1 calls)

     Called by electrons:
     c_bands      :    111.00s CPU    112.44s WALL (      12 calls)
     sum_band     :     13.95s CPU     14.11s WALL (      12 calls)
     v_of_rho     :      2.35s CPU      2.47s WALL (      13 calls)
     newd         :      0.03s CPU      0.04s WALL (      13 calls)
     mix_rho      :      0.03s CPU      0.03s WALL (      12 calls)
     vdW_kernel   :      1.50s CPU      1.52s WALL (       1 calls)

     Called by c_bands:
     init_us_2    :      1.63s CPU      1.68s WALL (    3105 calls)
     cegterg      :    107.34s CPU    108.22s WALL (    1380 calls)

     Called by *egterg:
     cdiaghg      :      8.61s CPU      8.63s WALL (    4945 calls)
     h_psi        :     85.34s CPU     86.19s WALL (    5060 calls)
     s_psi        :      3.19s CPU      3.21s WALL (    5060 calls)
     g_psi        :      0.29s CPU      0.29s WALL (    3565 calls)

     Called by h_psi:
     h_psi:calbec :      5.25s CPU      5.29s WALL (    5060 calls)
     vloc_psi     :     76.10s CPU     76.86s WALL (    5060 calls)
     add_vuspsi   :      3.39s CPU      3.42s WALL (    5060 calls)

     General routines
     calbec       :      6.97s CPU      7.04s WALL (    7015 calls)
     fft          :      0.67s CPU      0.68s WALL (     845 calls)
     ffts         :      0.01s CPU      0.01s WALL (      12 calls)
     fftw         :     79.29s CPU     80.09s WALL (  332678 calls)

     Parallel routines

     PWSCF        :   2m23.68s CPU   2m31.28s WALL


   This run was terminated on:  16:46:24  26Mar2026            

=------------------------------------------------------------------------------=
   JOB DONE.
=------------------------------------------------------------------------------=
