
     Program PWSCF v.7.3.1 starts on 26Mar2026 at 16:49:46 

     This program is part of the open-source Quantum ESPRESSO suite
     for quantum simulation of materials; please cite
         "P. Giannozzi et al., J. Phys.:Condens. Matter 21 395502 (2009);
         "P. Giannozzi et al., J. Phys.:Condens. Matter 29 465901 (2017);
         "P. Giannozzi et al., J. Chem. Phys. 152 154105 (2020);
          URL http://www.quantum-espresso.org", 
     in publications or presentations arising from this work. More details at
     http://www.quantum-espresso.org/quote

     Parallel version (MPI), running on   128 processors

     MPI processes distributed on     1 nodes
     237086 MiB available memory on the printing compute node when the environment starts

     Waiting for input...
     Reading input from standard input

     Current dimensions of program PWSCF are:
     Max number of different atomic species (ntypx) = 10
     Max number of k-points (npk) =  40000
     Max angular momentum in pseudopotentials (lmaxx) =  4

     IMPORTANT: XC functional enforced from input :
     Exchange-correlation= VDW-DF2
                           (   1   4  13   0   2   0   0)
     Any further DFT definition will be discarded
     Please, verify this is what you really want

     Found identity + ( -0.5000 -0.5000 -0.0000) symmetry
     This is a supercell, fractional translations are disabled

     K-points division:     npool     =       4
     R & G space division:  proc/nbgrp/npool/nimage =      32
     Subspace diagonalization in iterative solution of the eigenvalue problem:
     a serial algorithm will be used


     Parallelization info
     --------------------
     sticks:   dense  smooth     PW     G-vecs:    dense   smooth      PW
     Min         108     108     29                 5958     5958     863
     Max         109     109     30                 5965     5965     870
     Sum        3477    3477    957               190791   190791   27751

     Using Slab Decomposition



     bravais-lattice index     =            8
     lattice parameter (alat)  =       8.3714  a.u.
     unit-cell volume          =    1654.0780 (a.u.)^3
     number of atoms/cell      =           24
     number of atomic types    =            2
     number of electrons       =        64.00
     number of Kohn-Sham states=           32
     kinetic-energy cutoff     =      90.0000  Ry
     charge density cutoff     =     360.0000  Ry
     scf convergence threshold =      1.0E-07
     mixing beta               =       0.7000
     number of iterations used =            8  plain     mixing
     Exchange-correlation= VDW-DF2
                           (   1   4  13   0   2   0   0)

     celldm(1)=   8.371426  celldm(2)=   1.732119  celldm(3)=   1.627721
     celldm(4)=   0.000000  celldm(5)=   0.000000  celldm(6)=   0.000000

     crystal axes: (cart. coord. in units of alat)
               a(1) = (   1.000000   0.000000   0.000000 )  
               a(2) = (   0.000000   1.732119   0.000000 )  
               a(3) = (   0.000000   0.000000   1.627721 )  

     reciprocal axes: (cart. coord. in units 2 pi/alat)
               b(1) = (  1.000000  0.000000  0.000000 )  
               b(2) = (  0.000000  0.577328  0.000000 )  
               b(3) = (  0.000000  0.000000  0.614356 )  


     PseudoPot. # 1 for H  read from file:
     ./H.pbe-van_ak.UPF
     MD5 check sum: 077eb6d537518a38cb46c6de387227b7
     Pseudo is Ultrasoft, Zval =  1.0
     Generated by new atomic code, or converted to UPF format
     Using radial grid of  615 points,  1 beta functions with: 
                l(1) =   0
     Q(r) pseudized with  8 coefficients,  rinner =    0.800

     PseudoPot. # 2 for O  read from file:
     ./O.pbe-van_ak.UPF
     MD5 check sum: 78c19812648e8988a0fe644b0f25305e
     Pseudo is Ultrasoft, Zval =  6.0
     Generated by new atomic code, or converted to UPF format
     Using radial grid of  737 points,  4 beta functions with: 
                l(1) =   0
                l(2) =   0
                l(3) =   1
                l(4) =   1
     Q(r) pseudized with  8 coefficients,  rinner =    0.800   0.800   0.800


     atomic species   valence    mass     pseudopotential
     H                 1.00     1.00800     H ( 1.00)
     O                 6.00    16.00000     O ( 1.00)

      2 Sym. Ops. (no inversion) found



   Cartesian axes

     site n.     atom                  positions (alat units)
         1        O      tau(   1) = (   0.0000000   1.1505053   0.0983911  )
         2        O      tau(   2) = (   0.0000000   0.5816137   0.9122516  )
         3        O      tau(   3) = (   0.5000000   0.2844458   0.0983911  )
         4        O      tau(   4) = (   0.5000000   1.4476733   0.9122516  )
         5        O      tau(   5) = (   0.5000000   1.4413210   1.5245781  )
         6        O      tau(   6) = (   0.5000000   0.2907980   0.7107175  )
         7        O      tau(   7) = (   0.0000000   0.5752615   1.5245780  )
         8        O      tau(   8) = (   0.0000000   1.1568575   0.7107175  )
         9        H      tau(   9) = (   0.0000000   1.1476935   0.3199225  )
        10        H      tau(  10) = (   0.0000000   0.5844255   1.1337830  )
        11        H      tau(  11) = (   0.5000000   0.2816340   0.3199225  )
        12        H      tau(  12) = (   0.5000000   1.4504851   1.1337830  )
        13        H      tau(  13) = (   0.0000000   0.9389577   0.0320281  )
        14        H      tau(  14) = (   0.0000000   0.7931613   0.8458886  )
        15        H      tau(  15) = (   0.5000000   0.0728982   0.0320281  )
        16        H      tau(  16) = (   0.5000000   1.6592209   0.8458886  )
        17        H      tau(  17) = (   0.6777387   1.3318248   1.5989889  )
        18        H      tau(  18) = (   0.3222613   0.4002942   0.7851284  )
        19        H      tau(  19) = (   0.6777387   0.4002942   0.7851284  )
        20        H      tau(  20) = (   0.3222613   1.3318248   1.5989889  )
        21        H      tau(  21) = (   0.1777387   0.4657653   1.5989889  )
        22        H      tau(  22) = (   0.8222613   1.2663538   0.7851284  )
        23        H      tau(  23) = (   0.1777387   1.2663538   0.7851284  )
        24        H      tau(  24) = (   0.8222613   0.4657653   1.5989889  )

     number of k points=   460

     Number of k-points >= 100: set verbosity='high' to print them.

     Dense  grid:   190791 G-vectors     FFT dimensions: (  54,  90,  90)

     Estimated max dynamical RAM per process >      50.05 MB

     Estimated total dynamical RAM >       6.12 GB

     Initial potential from superposition of free atoms

     starting charge      63.9998, renormalised to      64.0000


     %%%%%%%%%%%%%%%%%%%%%%%%%%%%%%%%%%%%%%%%%%%%%%%%%%%%%%%%%%%%%%%%%%%%%%%%
     %                                                                      %
     % You are using vdW-DF, which was implemented by the Thonhauser group. %
     % Please cite the following two papers that made this development      %
     % possible and the two reviews that describe the various versions:     %
     %                                                                      %
     %   T. Thonhauser et al., PRL 115, 136402 (2015).                      %
     %   T. Thonhauser et al., PRB 76, 125112 (2007).                       %
     %   K. Berland et al., Rep. Prog. Phys. 78, 066501 (2015).             %
     %   D.C. Langreth et al., J. Phys.: Condens. Matter 21, 084203 (2009). %
     %                                                                      %
     % If you are calculating stress with vdW-DF, please also cite:         %
     %                                                                      %
     %   R. Sabatini et al., J. Phys.: Condens. Matter 24, 424209 (2012).   %
     %                                                                      %
     %%%%%%%%%%%%%%%%%%%%%%%%%%%%%%%%%%%%%%%%%%%%%%%%%%%%%%%%%%%%%%%%%%%%%%%%

     %%%%%%%%%%%%%%%%%%%%%%%%%%%%%%%%%%%%%%%%%%%%%%%%%%%%%%%%%%%%%%%%%%%%%%%%
     %                                                                      %
     %  vdW-DF NEWS:                                                        %
     %                                                                      %
     %  * vdW-DF3 is now available. DOI: 10.1021/acs.jctc.0c00471           %
     %    use with input_dft = 'vdW-DF3-opt1' or 'vdW-DF3-opt2'             %
     %                                                                      %
     %  * Unscreened and range-separated hybrid vdW-DF-cx functionals       %
     %    DOI: 10.1063/1.4986522 and 10.1088/1361-648X/ac2ad2               %
     %    use with input_dft = 'vdW-DF-cx0'    and 'vdW-DF-ahcx'            %
     %  * Unscreened and range-separated hybrid vdW-DF2-b86r functionals    %
     %    DOI: 10.1063/1.4986522 and DOI: 10.1103/PhysRevX.12.041003        %
     %    use with input_dft = 'vdW-DF2-br0' and 'vdW-DF2-ahbr'             %
     %                                                                      %
     %%%%%%%%%%%%%%%%%%%%%%%%%%%%%%%%%%%%%%%%%%%%%%%%%%%%%%%%%%%%%%%%%%%%%%%%


     Starting wfcs are   48 randomized atomic wfcs

     total cpu time spent up to now is        6.5 secs

     per-process dynamical memory:    57.6 Mb

     Self-consistent Calculation

     iteration #  1     ecut=    90.00 Ry     beta= 0.70
     Davidson diagonalization with overlap
     ethr =  1.00E-02,  avg # of iterations =  2.0

     total cpu time spent up to now is       15.6 secs

     total energy              =    -277.27524328 Ry
     estimated scf accuracy    <       3.25164499 Ry

     iteration #  2     ecut=    90.00 Ry     beta= 0.70
     Davidson diagonalization with overlap
     ethr =  5.08E-03,  avg # of iterations =  3.0

     total cpu time spent up to now is       27.9 secs

     total energy              =    -278.32588549 Ry
     estimated scf accuracy    <       2.17741122 Ry

     iteration #  3     ecut=    90.00 Ry     beta= 0.70
     Davidson diagonalization with overlap
     ethr =  3.40E-03,  avg # of iterations =  2.0

     total cpu time spent up to now is       37.3 secs

     total energy              =    -278.63035230 Ry
     estimated scf accuracy    <       0.08450687 Ry

     iteration #  4     ecut=    90.00 Ry     beta= 0.70
     Davidson diagonalization with overlap
     ethr =  1.32E-04,  avg # of iterations =  4.0

     total cpu time spent up to now is       51.3 secs

     total energy              =    -278.69593769 Ry
     estimated scf accuracy    <       0.11171047 Ry

     iteration #  5     ecut=    90.00 Ry     beta= 0.70
     Davidson diagonalization with overlap
     ethr =  1.32E-04,  avg # of iterations =  2.0

     total cpu time spent up to now is       59.5 secs

     total energy              =    -278.69671233 Ry
     estimated scf accuracy    <       0.01588810 Ry

     iteration #  6     ecut=    90.00 Ry     beta= 0.70
     Davidson diagonalization with overlap
     ethr =  2.48E-05,  avg # of iterations =  2.0

     total cpu time spent up to now is       69.3 secs

     total energy              =    -278.70197154 Ry
     estimated scf accuracy    <       0.00010036 Ry

     iteration #  7     ecut=    90.00 Ry     beta= 0.70
     Davidson diagonalization with overlap
     ethr =  1.57E-07,  avg # of iterations =  6.0

     total cpu time spent up to now is       85.8 secs

     total energy              =    -278.70259115 Ry
     estimated scf accuracy    <       0.00237077 Ry

     iteration #  8     ecut=    90.00 Ry     beta= 0.70
     Davidson diagonalization with overlap
     ethr =  1.57E-07,  avg # of iterations =  1.0

     total cpu time spent up to now is       92.7 secs

     total energy              =    -278.70169743 Ry
     estimated scf accuracy    <       0.00224406 Ry

     iteration #  9     ecut=    90.00 Ry     beta= 0.70
     Davidson diagonalization with overlap
     ethr =  1.57E-07,  avg # of iterations =  4.0

     total cpu time spent up to now is      107.6 secs

     total energy              =    -278.70195792 Ry
     estimated scf accuracy    <       0.00014144 Ry

     iteration # 10     ecut=    90.00 Ry     beta= 0.70
     Davidson diagonalization with overlap
     ethr =  1.57E-07,  avg # of iterations =  1.0

     total cpu time spent up to now is      114.4 secs

     total energy              =    -278.70192859 Ry
     estimated scf accuracy    <       0.00011205 Ry

     iteration # 11     ecut=    90.00 Ry     beta= 0.70
     Davidson diagonalization with overlap
     ethr =  1.57E-07,  avg # of iterations =  2.0

     total cpu time spent up to now is      122.9 secs

     total energy              =    -278.70194409 Ry
     estimated scf accuracy    <       0.00002606 Ry

     iteration # 12     ecut=    90.00 Ry     beta= 0.70
     Davidson diagonalization with overlap
     ethr =  4.07E-08,  avg # of iterations =  2.0

     total cpu time spent up to now is      131.0 secs

     total energy              =    -278.70196804 Ry
     estimated scf accuracy    <       0.00004276 Ry

     iteration # 13     ecut=    90.00 Ry     beta= 0.70
     Davidson diagonalization with overlap
     ethr =  4.07E-08,  avg # of iterations =  2.0

     total cpu time spent up to now is      140.6 secs

     total energy              =    -278.70198099 Ry
     estimated scf accuracy    <       0.00012346 Ry

     iteration # 14     ecut=    90.00 Ry     beta= 0.70
     Davidson diagonalization with overlap
     ethr =  4.07E-08,  avg # of iterations =  1.0

     total cpu time spent up to now is      147.4 secs

     total energy              =    -278.70198151 Ry
     estimated scf accuracy    <       0.00016033 Ry

     iteration # 15     ecut=    90.00 Ry     beta= 0.70
     Davidson diagonalization with overlap
     ethr =  4.07E-08,  avg # of iterations =  1.0

     total cpu time spent up to now is      154.3 secs

     total energy              =    -278.70197762 Ry
     estimated scf accuracy    <       0.00015823 Ry

     iteration # 16     ecut=    90.00 Ry     beta= 0.70
     Davidson diagonalization with overlap
     ethr =  4.07E-08,  avg # of iterations =  1.0

     total cpu time spent up to now is      161.1 secs

     total energy              =    -278.70197719 Ry
     estimated scf accuracy    <       0.00015379 Ry

     iteration # 17     ecut=    90.00 Ry     beta= 0.70
     Davidson diagonalization with overlap
     ethr =  4.07E-08,  avg # of iterations =  1.0

     total cpu time spent up to now is      167.9 secs

     total energy              =    -278.70197612 Ry
     estimated scf accuracy    <       0.00015281 Ry

     iteration # 18     ecut=    90.00 Ry     beta= 0.70
     Davidson diagonalization with overlap
     ethr =  4.07E-08,  avg # of iterations =  1.0

     total cpu time spent up to now is      174.8 secs

     total energy              =    -278.70190696 Ry
     estimated scf accuracy    <       0.00015001 Ry

     iteration # 19     ecut=    90.00 Ry     beta= 0.70
     Davidson diagonalization with overlap
     ethr =  4.07E-08,  avg # of iterations =  3.0

     total cpu time spent up to now is      187.1 secs

     total energy              =    -278.70193204 Ry
     estimated scf accuracy    <       0.00000185 Ry

     iteration # 20     ecut=    90.00 Ry     beta= 0.70
     Davidson diagonalization with overlap
     ethr =  2.89E-09,  avg # of iterations =  3.0

     total cpu time spent up to now is      197.8 secs

     total energy              =    -278.70193243 Ry
     estimated scf accuracy    <       0.00000153 Ry

     iteration # 21     ecut=    90.00 Ry     beta= 0.70
     Davidson diagonalization with overlap
     ethr =  2.39E-09,  avg # of iterations =  1.0

     total cpu time spent up to now is      204.7 secs

     total energy              =    -278.70193224 Ry
     estimated scf accuracy    <       0.00000075 Ry

     iteration # 22     ecut=    90.00 Ry     beta= 0.70
     Davidson diagonalization with overlap
     ethr =  1.18E-09,  avg # of iterations =  2.0

     total cpu time spent up to now is      213.7 secs

     End of self-consistent calculation

     Number of k-points >= 100: set verbosity='high' to print the bands.

     highest occupied level (ev):    -3.6955

!    total energy              =    -278.70193233 Ry
     estimated scf accuracy    <       0.00000006 Ry

     The total energy is the sum of the following terms:
     one-electron contribution =    -235.11879773 Ry
     hartree contribution      =     138.80749201 Ry
     xc contribution           =     -70.87353563 Ry
     ewald contribution        =    -111.51709098 Ry

     convergence has been achieved in  22 iterations

     Forces acting on atoms (cartesian axes, Ry/au):

     atom    1 type  2   force =     0.00000000    0.02208766   -0.01669286
     atom    2 type  2   force =     0.00000000   -0.02208776   -0.01669273
     atom    3 type  2   force =     0.00000000    0.02208775   -0.01669273
     atom    4 type  2   force =     0.00000000   -0.02208762   -0.01669286
     atom    5 type  2   force =     0.00000000    0.02171266   -0.01559387
     atom    6 type  2   force =     0.00000000   -0.02171319   -0.01559429
     atom    7 type  2   force =     0.00000000    0.02171304   -0.01559401
     atom    8 type  2   force =     0.00000000   -0.02171286   -0.01559423
     atom    9 type  1   force =     0.00000000    0.00145796    0.02541490
     atom   10 type  1   force =     0.00000000   -0.00145804    0.02541492
     atom   11 type  1   force =     0.00000000    0.00145802    0.02541491
     atom   12 type  1   force =     0.00000000   -0.00145796    0.02541496
     atom   13 type  1   force =     0.00000000   -0.02335206   -0.00898748
     atom   14 type  1   force =     0.00000000    0.02335220   -0.00898767
     atom   15 type  1   force =     0.00000000   -0.02335215   -0.00898759
     atom   16 type  1   force =     0.00000000    0.02335216   -0.00898755
     atom   17 type  1   force =     0.02111346   -0.01174726    0.00792977
     atom   18 type  1   force =    -0.02111345    0.01174730    0.00792978
     atom   19 type  1   force =     0.02111345    0.01174730    0.00792978
     atom   20 type  1   force =    -0.02111346   -0.01174726    0.00792977
     atom   21 type  1   force =     0.02111342   -0.01174726    0.00792978
     atom   22 type  1   force =    -0.02111342    0.01174730    0.00792976
     atom   23 type  1   force =     0.02111342    0.01174730    0.00792976
     atom   24 type  1   force =    -0.02111342   -0.01174726    0.00792978

     Total force =     0.127257     Total SCF correction =     0.000039


     Computing stress (Cartesian axis) and pressure

          total   stress  (Ry/bohr**3)                   (kbar)     P=       34.75
   0.00022801   0.00000000   0.00000000           33.54        0.00        0.00
   0.00000000   0.00024800  -0.00000000            0.00       36.48       -0.00
   0.00000000  -0.00000000   0.00023271            0.00       -0.00       34.23


     Writing all to output data dir ./iceIh/iceIh.save/ :
     XML data file, charge density, pseudopotentials, collected wavefunctions

     init_run     :      6.14s CPU      6.24s WALL (       1 calls)
     electrons    :    204.28s CPU    207.31s WALL (       1 calls)
     forces       :      0.57s CPU      0.58s WALL (       1 calls)
     stress       :      8.55s CPU      8.58s WALL (       1 calls)

     Called by init_run:
     wfcinit      :      4.11s CPU      4.18s WALL (       1 calls)
     potinit      :      1.59s CPU      1.62s WALL (       1 calls)
     hinit0       :      0.34s CPU      0.35s WALL (       1 calls)

     Called by electrons:
     c_bands      :    177.60s CPU    180.16s WALL (      22 calls)
     sum_band     :     25.08s CPU     25.31s WALL (      22 calls)
     v_of_rho     :      3.01s CPU      3.18s WALL (      23 calls)
     newd         :      0.05s CPU      0.07s WALL (      23 calls)
     mix_rho      :      0.07s CPU      0.07s WALL (      22 calls)
     vdW_kernel   :      1.51s CPU      1.52s WALL (       1 calls)

     Called by c_bands:
     init_us_2    :      2.88s CPU      2.97s WALL (    5405 calls)
     cegterg      :    171.60s CPU    173.16s WALL (    2530 calls)

     Called by *egterg:
     cdiaghg      :     13.20s CPU     13.24s WALL (    7932 calls)
     h_psi        :    135.54s CPU    137.02s WALL (    8047 calls)
     s_psi        :      5.00s CPU      5.03s WALL (    8047 calls)
     g_psi        :      0.45s CPU      0.45s WALL (    5402 calls)

     Called by h_psi:
     h_psi:calbec :      8.35s CPU      8.42s WALL (    8047 calls)
     vloc_psi     :    120.65s CPU    121.98s WALL (    8047 calls)
     add_vuspsi   :      5.47s CPU      5.52s WALL (    8047 calls)

     General routines
     calbec       :     11.02s CPU     11.13s WALL (   11152 calls)
     fft          :      1.08s CPU      1.10s WALL (    1455 calls)
     ffts         :      0.01s CPU      0.01s WALL (      22 calls)
     fftw         :    128.50s CPU    129.81s WALL (  542740 calls)

     Parallel routines

     PWSCF        :   3m42.86s CPU   3m53.51s WALL


   This run was terminated on:  16:53:40  26Mar2026            

=------------------------------------------------------------------------------=
   JOB DONE.
=------------------------------------------------------------------------------=
