
     Program PWSCF v.7.3.1 starts on 26Mar2026 at 17: 1:54 

     This program is part of the open-source Quantum ESPRESSO suite
     for quantum simulation of materials; please cite
         "P. Giannozzi et al., J. Phys.:Condens. Matter 21 395502 (2009);
         "P. Giannozzi et al., J. Phys.:Condens. Matter 29 465901 (2017);
         "P. Giannozzi et al., J. Chem. Phys. 152 154105 (2020);
          URL http://www.quantum-espresso.org", 
     in publications or presentations arising from this work. More details at
     http://www.quantum-espresso.org/quote

     Parallel version (MPI), running on   128 processors

     MPI processes distributed on     1 nodes
     236934 MiB available memory on the printing compute node when the environment starts

     Waiting for input...
     Reading input from standard input

     Current dimensions of program PWSCF are:
     Max number of different atomic species (ntypx) = 10
     Max number of k-points (npk) =  40000
     Max angular momentum in pseudopotentials (lmaxx) =  4

     IMPORTANT: XC functional enforced from input :
     Exchange-correlation= VDW-DF2
                           (   1   4  13   0   2   0   0)
     Any further DFT definition will be discarded
     Please, verify this is what you really want

     Found identity + ( -0.5000 -0.5000 -0.0000) symmetry
     This is a supercell, fractional translations are disabled

     K-points division:     npool     =       4
     R & G space division:  proc/nbgrp/npool/nimage =      32
     Subspace diagonalization in iterative solution of the eigenvalue problem:
     a serial algorithm will be used


     Parallelization info
     --------------------
     sticks:   dense  smooth     PW     G-vecs:    dense   smooth      PW
     Min         110     110     30                 6074     6074     880
     Max         111     111     32                 6077     6077     883
     Sum        3523    3523    981               194385   194385   28183

     Using Slab Decomposition



     bravais-lattice index     =            8
     lattice parameter (alat)  =       8.4225  a.u.
     unit-cell volume          =    1684.5204 (a.u.)^3
     number of atoms/cell      =           24
     number of atomic types    =            2
     number of electrons       =        64.00
     number of Kohn-Sham states=           32
     kinetic-energy cutoff     =      90.0000  Ry
     charge density cutoff     =     360.0000  Ry
     scf convergence threshold =      1.0E-07
     mixing beta               =       0.7000
     number of iterations used =            8  plain     mixing
     Exchange-correlation= VDW-DF2
                           (   1   4  13   0   2   0   0)

     celldm(1)=   8.422471  celldm(2)=   1.732119  celldm(3)=   1.627721
     celldm(4)=   0.000000  celldm(5)=   0.000000  celldm(6)=   0.000000

     crystal axes: (cart. coord. in units of alat)
               a(1) = (   1.000000   0.000000   0.000000 )  
               a(2) = (   0.000000   1.732119   0.000000 )  
               a(3) = (   0.000000   0.000000   1.627721 )  

     reciprocal axes: (cart. coord. in units 2 pi/alat)
               b(1) = (  1.000000  0.000000  0.000000 )  
               b(2) = (  0.000000  0.577328  0.000000 )  
               b(3) = (  0.000000  0.000000  0.614356 )  


     PseudoPot. # 1 for H  read from file:
     ./H.pbe-van_ak.UPF
     MD5 check sum: 077eb6d537518a38cb46c6de387227b7
     Pseudo is Ultrasoft, Zval =  1.0
     Generated by new atomic code, or converted to UPF format
     Using radial grid of  615 points,  1 beta functions with: 
                l(1) =   0
     Q(r) pseudized with  8 coefficients,  rinner =    0.800

     PseudoPot. # 2 for O  read from file:
     ./O.pbe-van_ak.UPF
     MD5 check sum: 78c19812648e8988a0fe644b0f25305e
     Pseudo is Ultrasoft, Zval =  6.0
     Generated by new atomic code, or converted to UPF format
     Using radial grid of  737 points,  4 beta functions with: 
                l(1) =   0
                l(2) =   0
                l(3) =   1
                l(4) =   1
     Q(r) pseudized with  8 coefficients,  rinner =    0.800   0.800   0.800


     atomic species   valence    mass     pseudopotential
     H                 1.00     1.00800     H ( 1.00)
     O                 6.00    16.00000     O ( 1.00)

      2 Sym. Ops. (no inversion) found



   Cartesian axes

     site n.     atom                  positions (alat units)
         1        O      tau(   1) = (   0.0000000   1.1505053   0.0983911  )
         2        O      tau(   2) = (   0.0000000   0.5816137   0.9122516  )
         3        O      tau(   3) = (   0.5000000   0.2844458   0.0983911  )
         4        O      tau(   4) = (   0.5000000   1.4476733   0.9122516  )
         5        O      tau(   5) = (   0.5000000   1.4413210   1.5245781  )
         6        O      tau(   6) = (   0.5000000   0.2907980   0.7107175  )
         7        O      tau(   7) = (   0.0000000   0.5752615   1.5245780  )
         8        O      tau(   8) = (   0.0000000   1.1568575   0.7107175  )
         9        H      tau(   9) = (   0.0000000   1.1476935   0.3199225  )
        10        H      tau(  10) = (   0.0000000   0.5844255   1.1337830  )
        11        H      tau(  11) = (   0.5000000   0.2816340   0.3199225  )
        12        H      tau(  12) = (   0.5000000   1.4504851   1.1337830  )
        13        H      tau(  13) = (   0.0000000   0.9389577   0.0320281  )
        14        H      tau(  14) = (   0.0000000   0.7931613   0.8458886  )
        15        H      tau(  15) = (   0.5000000   0.0728982   0.0320281  )
        16        H      tau(  16) = (   0.5000000   1.6592209   0.8458886  )
        17        H      tau(  17) = (   0.6777387   1.3318248   1.5989889  )
        18        H      tau(  18) = (   0.3222613   0.4002942   0.7851284  )
        19        H      tau(  19) = (   0.6777387   0.4002942   0.7851284  )
        20        H      tau(  20) = (   0.3222613   1.3318248   1.5989889  )
        21        H      tau(  21) = (   0.1777387   0.4657653   1.5989889  )
        22        H      tau(  22) = (   0.8222613   1.2663538   0.7851284  )
        23        H      tau(  23) = (   0.1777387   1.2663538   0.7851284  )
        24        H      tau(  24) = (   0.8222613   0.4657653   1.5989889  )

     number of k points=   460

     Number of k-points >= 100: set verbosity='high' to print them.

     Dense  grid:   194385 G-vectors     FFT dimensions: (  54,  90,  90)

     Estimated max dynamical RAM per process >      50.95 MB

     Estimated total dynamical RAM >       6.23 GB

     Initial potential from superposition of free atoms

     starting charge      63.9998, renormalised to      64.0000


     %%%%%%%%%%%%%%%%%%%%%%%%%%%%%%%%%%%%%%%%%%%%%%%%%%%%%%%%%%%%%%%%%%%%%%%%
     %                                                                      %
     % You are using vdW-DF, which was implemented by the Thonhauser group. %
     % Please cite the following two papers that made this development      %
     % possible and the two reviews that describe the various versions:     %
     %                                                                      %
     %   T. Thonhauser et al., PRL 115, 136402 (2015).                      %
     %   T. Thonhauser et al., PRB 76, 125112 (2007).                       %
     %   K. Berland et al., Rep. Prog. Phys. 78, 066501 (2015).             %
     %   D.C. Langreth et al., J. Phys.: Condens. Matter 21, 084203 (2009). %
     %                                                                      %
     % If you are calculating stress with vdW-DF, please also cite:         %
     %                                                                      %
     %   R. Sabatini et al., J. Phys.: Condens. Matter 24, 424209 (2012).   %
     %                                                                      %
     %%%%%%%%%%%%%%%%%%%%%%%%%%%%%%%%%%%%%%%%%%%%%%%%%%%%%%%%%%%%%%%%%%%%%%%%

     %%%%%%%%%%%%%%%%%%%%%%%%%%%%%%%%%%%%%%%%%%%%%%%%%%%%%%%%%%%%%%%%%%%%%%%%
     %                                                                      %
     %  vdW-DF NEWS:                                                        %
     %                                                                      %
     %  * vdW-DF3 is now available. DOI: 10.1021/acs.jctc.0c00471           %
     %    use with input_dft = 'vdW-DF3-opt1' or 'vdW-DF3-opt2'             %
     %                                                                      %
     %  * Unscreened and range-separated hybrid vdW-DF-cx functionals       %
     %    DOI: 10.1063/1.4986522 and 10.1088/1361-648X/ac2ad2               %
     %    use with input_dft = 'vdW-DF-cx0'    and 'vdW-DF-ahcx'            %
     %  * Unscreened and range-separated hybrid vdW-DF2-b86r functionals    %
     %    DOI: 10.1063/1.4986522 and DOI: 10.1103/PhysRevX.12.041003        %
     %    use with input_dft = 'vdW-DF2-br0' and 'vdW-DF2-ahbr'             %
     %                                                                      %
     %%%%%%%%%%%%%%%%%%%%%%%%%%%%%%%%%%%%%%%%%%%%%%%%%%%%%%%%%%%%%%%%%%%%%%%%


     Starting wfcs are   48 randomized atomic wfcs

     total cpu time spent up to now is        6.5 secs

     per-process dynamical memory:    58.8 Mb

     Self-consistent Calculation

     iteration #  1     ecut=    90.00 Ry     beta= 0.70
     Davidson diagonalization with overlap
     ethr =  1.00E-02,  avg # of iterations =  2.0

     total cpu time spent up to now is       15.7 secs

     total energy              =    -277.28753679 Ry
     estimated scf accuracy    <       3.22114236 Ry

     iteration #  2     ecut=    90.00 Ry     beta= 0.70
     Davidson diagonalization with overlap
     ethr =  5.03E-03,  avg # of iterations =  3.0

     total cpu time spent up to now is       28.1 secs

     total energy              =    -278.32787124 Ry
     estimated scf accuracy    <       2.20926069 Ry

     iteration #  3     ecut=    90.00 Ry     beta= 0.70
     Davidson diagonalization with overlap
     ethr =  3.45E-03,  avg # of iterations =  2.0

     total cpu time spent up to now is       37.6 secs

     total energy              =    -278.63442181 Ry
     estimated scf accuracy    <       0.08745270 Ry

     iteration #  4     ecut=    90.00 Ry     beta= 0.70
     Davidson diagonalization with overlap
     ethr =  1.37E-04,  avg # of iterations =  4.0

     total cpu time spent up to now is       51.7 secs

     total energy              =    -278.70243248 Ry
     estimated scf accuracy    <       0.11450458 Ry

     iteration #  5     ecut=    90.00 Ry     beta= 0.70
     Davidson diagonalization with overlap
     ethr =  1.37E-04,  avg # of iterations =  2.0

     negative rho (up, down):  8.888E-08 0.000E+00

     total cpu time spent up to now is       60.1 secs

     total energy              =    -278.70328382 Ry
     estimated scf accuracy    <       0.01649234 Ry

     iteration #  6     ecut=    90.00 Ry     beta= 0.70
     Davidson diagonalization with overlap
     ethr =  2.58E-05,  avg # of iterations =  2.0

     negative rho (up, down):  1.426E-07 0.000E+00

     total cpu time spent up to now is       70.0 secs

     total energy              =    -278.70835425 Ry
     estimated scf accuracy    <       0.00011031 Ry

     iteration #  7     ecut=    90.00 Ry     beta= 0.70
     Davidson diagonalization with overlap
     ethr =  1.72E-07,  avg # of iterations =  6.0

     negative rho (up, down):  1.102E-07 0.000E+00

     total cpu time spent up to now is       86.4 secs

     total energy              =    -278.70912812 Ry
     estimated scf accuracy    <       0.00206440 Ry

     iteration #  8     ecut=    90.00 Ry     beta= 0.70
     Davidson diagonalization with overlap
     ethr =  1.72E-07,  avg # of iterations =  1.0

     negative rho (up, down):  3.821E-08 0.000E+00

     total cpu time spent up to now is       93.4 secs

     total energy              =    -278.70822906 Ry
     estimated scf accuracy    <       0.00230461 Ry

     iteration #  9     ecut=    90.00 Ry     beta= 0.70
     Davidson diagonalization with overlap
     ethr =  1.72E-07,  avg # of iterations =  4.0

     negative rho (up, down):  4.039E-08 0.000E+00

     total cpu time spent up to now is      108.1 secs

     total energy              =    -278.70847592 Ry
     estimated scf accuracy    <       0.00018441 Ry

     iteration # 10     ecut=    90.00 Ry     beta= 0.70
     Davidson diagonalization with overlap
     ethr =  1.72E-07,  avg # of iterations =  1.0

     negative rho (up, down):  2.390E-08 0.000E+00

     total cpu time spent up to now is      115.0 secs

     total energy              =    -278.70840713 Ry
     estimated scf accuracy    <       0.00016642 Ry

     iteration # 11     ecut=    90.00 Ry     beta= 0.70
     Davidson diagonalization with overlap
     ethr =  1.72E-07,  avg # of iterations =  2.0

     negative rho (up, down):  1.300E-08 0.000E+00

     total cpu time spent up to now is      124.9 secs

     total energy              =    -278.70842740 Ry
     estimated scf accuracy    <       0.00000991 Ry

     iteration # 12     ecut=    90.00 Ry     beta= 0.70
     Davidson diagonalization with overlap
     ethr =  1.55E-08,  avg # of iterations =  4.0

     total cpu time spent up to now is      138.7 secs

     total energy              =    -278.70844660 Ry
     estimated scf accuracy    <       0.00001450 Ry

     iteration # 13     ecut=    90.00 Ry     beta= 0.70
     Davidson diagonalization with overlap
     ethr =  1.55E-08,  avg # of iterations =  2.0

     negative rho (up, down):  1.329E-08 0.000E+00

     total cpu time spent up to now is      148.6 secs

     total energy              =    -278.70844330 Ry
     estimated scf accuracy    <       0.00004661 Ry

     iteration # 14     ecut=    90.00 Ry     beta= 0.70
     Davidson diagonalization with overlap
     ethr =  1.55E-08,  avg # of iterations =  1.0

     negative rho (up, down):  1.165E-08 0.000E+00

     total cpu time spent up to now is      155.5 secs

     total energy              =    -278.70844618 Ry
     estimated scf accuracy    <       0.00003329 Ry

     iteration # 15     ecut=    90.00 Ry     beta= 0.70
     Davidson diagonalization with overlap
     ethr =  1.55E-08,  avg # of iterations =  1.0

     negative rho (up, down):  2.174E-08 0.000E+00

     total cpu time spent up to now is      162.5 secs

     total energy              =    -278.70843221 Ry
     estimated scf accuracy    <       0.00004015 Ry

     iteration # 16     ecut=    90.00 Ry     beta= 0.70
     Davidson diagonalization with overlap
     ethr =  1.55E-08,  avg # of iterations =  2.0

     negative rho (up, down):  1.694E-08 0.000E+00

     total cpu time spent up to now is      172.6 secs

     total energy              =    -278.70843576 Ry
     estimated scf accuracy    <       0.00000824 Ry

     iteration # 17     ecut=    90.00 Ry     beta= 0.70
     Davidson diagonalization with overlap
     ethr =  1.29E-08,  avg # of iterations =  1.0

     negative rho (up, down):  2.003E-08 0.000E+00

     total cpu time spent up to now is      179.6 secs

     total energy              =    -278.70843271 Ry
     estimated scf accuracy    <       0.00000744 Ry

     iteration # 18     ecut=    90.00 Ry     beta= 0.70
     Davidson diagonalization with overlap
     ethr =  1.16E-08,  avg # of iterations =  2.0

     negative rho (up, down):  2.510E-08 0.000E+00

     total cpu time spent up to now is      188.9 secs

     total energy              =    -278.70843376 Ry
     estimated scf accuracy    <       0.00000029 Ry

     iteration # 19     ecut=    90.00 Ry     beta= 0.70
     Davidson diagonalization with overlap
     ethr =  4.47E-10,  avg # of iterations =  4.0

     negative rho (up, down):  2.557E-08 0.000E+00

     total cpu time spent up to now is      203.7 secs

     total energy              =    -278.70843402 Ry
     estimated scf accuracy    <       0.00000137 Ry

     iteration # 20     ecut=    90.00 Ry     beta= 0.70
     Davidson diagonalization with overlap
     ethr =  4.47E-10,  avg # of iterations =  2.0

     negative rho (up, down):  2.543E-08 0.000E+00

     total cpu time spent up to now is      213.8 secs

     total energy              =    -278.70843406 Ry
     estimated scf accuracy    <       0.00000036 Ry

     iteration # 21     ecut=    90.00 Ry     beta= 0.70
     Davidson diagonalization with overlap
     ethr =  4.47E-10,  avg # of iterations =  1.0

     negative rho (up, down):  2.393E-08 0.000E+00

     total cpu time spent up to now is      220.8 secs

     total energy              =    -278.70843407 Ry
     estimated scf accuracy    <       0.00000023 Ry

     iteration # 22     ecut=    90.00 Ry     beta= 0.70
     Davidson diagonalization with overlap
     ethr =  3.57E-10,  avg # of iterations =  1.0

     negative rho (up, down):  2.276E-08 0.000E+00

     total cpu time spent up to now is      227.7 secs

     total energy              =    -278.70843398 Ry
     estimated scf accuracy    <       0.00000023 Ry

     iteration # 23     ecut=    90.00 Ry     beta= 0.70
     Davidson diagonalization with overlap
     ethr =  3.55E-10,  avg # of iterations =  2.0

     negative rho (up, down):  2.172E-08 0.000E+00

     total cpu time spent up to now is      237.1 secs

     End of self-consistent calculation

     Number of k-points >= 100: set verbosity='high' to print the bands.

     highest occupied level (ev):    -3.7704

!    total energy              =    -278.70843399 Ry
     estimated scf accuracy    <       0.00000003 Ry

     The total energy is the sum of the following terms:
     one-electron contribution =    -236.38137924 Ry
     hartree contribution      =     139.27795654 Ry
     xc contribution           =     -70.76378147 Ry
     ewald contribution        =    -110.84122982 Ry

     convergence has been achieved in  23 iterations

     Forces acting on atoms (cartesian axes, Ry/au):

     atom    1 type  2   force =     0.00000000    0.01370618   -0.00993873
     atom    2 type  2   force =     0.00000000   -0.01370609   -0.00993851
     atom    3 type  2   force =     0.00000000    0.01370608   -0.00993865
     atom    4 type  2   force =     0.00000000   -0.01370615   -0.00993859
     atom    5 type  2   force =     0.00000000    0.01307310   -0.00997679
     atom    6 type  2   force =     0.00000000   -0.01307306   -0.00997676
     atom    7 type  2   force =     0.00000000    0.01307317   -0.00997679
     atom    8 type  2   force =     0.00000000   -0.01307319   -0.00997684
     atom    9 type  1   force =     0.00000000    0.00106227    0.01554689
     atom   10 type  1   force =     0.00000000   -0.00106230    0.01554686
     atom   11 type  1   force =     0.00000000    0.00106228    0.01554692
     atom   12 type  1   force =     0.00000000   -0.00106229    0.01554689
     atom   13 type  1   force =     0.00000000   -0.01422419   -0.00548268
     atom   14 type  1   force =     0.00000000    0.01422425   -0.00548271
     atom   15 type  1   force =     0.00000000   -0.01422425   -0.00548271
     atom   16 type  1   force =     0.00000000    0.01422424   -0.00548270
     atom   17 type  1   force =     0.01286602   -0.00733030    0.00492560
     atom   18 type  1   force =    -0.01286609    0.00733033    0.00492564
     atom   19 type  1   force =     0.01286609    0.00733033    0.00492564
     atom   20 type  1   force =    -0.01286602   -0.00733030    0.00492560
     atom   21 type  1   force =     0.01286605   -0.00733032    0.00492561
     atom   22 type  1   force =    -0.01286603    0.00733027    0.00492560
     atom   23 type  1   force =     0.01286603    0.00733027    0.00492560
     atom   24 type  1   force =    -0.01286605   -0.00733032    0.00492561

     Total force =     0.077958     Total SCF correction =     0.000133


     Computing stress (Cartesian axis) and pressure

          total   stress  (Ry/bohr**3)                   (kbar)     P=       21.51
   0.00013855   0.00000000   0.00000000           20.38        0.00        0.00
   0.00000000   0.00015644  -0.00000000            0.00       23.01       -0.00
   0.00000000  -0.00000000   0.00014373            0.00       -0.00       21.14


     Writing all to output data dir ./iceIh/iceIh.save/ :
     XML data file, charge density, pseudopotentials, collected wavefunctions

     init_run     :      6.15s CPU      6.27s WALL (       1 calls)
     electrons    :    227.24s CPU    230.65s WALL (       1 calls)
     forces       :      0.63s CPU      0.64s WALL (       1 calls)
     stress       :      8.72s CPU      8.73s WALL (       1 calls)

     Called by init_run:
     wfcinit      :      4.13s CPU      4.21s WALL (       1 calls)
     potinit      :      1.60s CPU      1.62s WALL (       1 calls)
     hinit0       :      0.33s CPU      0.34s WALL (       1 calls)

     Called by electrons:
     c_bands      :    198.95s CPU    201.79s WALL (      23 calls)
     sum_band     :     26.59s CPU     26.92s WALL (      23 calls)
     v_of_rho     :      3.09s CPU      3.27s WALL (      24 calls)
     newd         :      0.07s CPU      0.09s WALL (      24 calls)
     mix_rho      :      0.07s CPU      0.07s WALL (      23 calls)
     vdW_kernel   :      1.51s CPU      1.52s WALL (       1 calls)

     Called by c_bands:
     init_us_2    :      3.12s CPU      3.24s WALL (    5635 calls)
     cegterg      :    192.44s CPU    194.20s WALL (    2645 calls)

     Called by *egterg:
     cdiaghg      :     14.65s CPU     14.72s WALL (    8625 calls)
     h_psi        :    151.65s CPU    153.30s WALL (    8740 calls)
     s_psi        :      5.59s CPU      5.63s WALL (    8740 calls)
     g_psi        :      0.52s CPU      0.52s WALL (    5980 calls)

     Called by h_psi:
     h_psi:calbec :      9.32s CPU      9.40s WALL (    8740 calls)
     vloc_psi     :    135.28s CPU    136.77s WALL (    8740 calls)
     add_vuspsi   :      5.96s CPU      6.01s WALL (    8740 calls)

     General routines
     calbec       :     12.13s CPU     12.25s WALL (   11960 calls)
     fft          :      1.13s CPU      1.17s WALL (    1516 calls)
     ffts         :      0.01s CPU      0.01s WALL (      23 calls)
     fftw         :    142.72s CPU    144.29s WALL (  595306 calls)

     Parallel routines

     PWSCF        :   4m 5.40s CPU   4m14.27s WALL


   This run was terminated on:  17: 6: 8  26Mar2026            

=------------------------------------------------------------------------------=
   JOB DONE.
=------------------------------------------------------------------------------=
