
     Program PWSCF v.7.3.1 starts on  1Apr2026 at 23: 1:54 

     This program is part of the open-source Quantum ESPRESSO suite
     for quantum simulation of materials; please cite
         "P. Giannozzi et al., J. Phys.:Condens. Matter 21 395502 (2009);
         "P. Giannozzi et al., J. Phys.:Condens. Matter 29 465901 (2017);
         "P. Giannozzi et al., J. Chem. Phys. 152 154105 (2020);
          URL http://www.quantum-espresso.org", 
     in publications or presentations arising from this work. More details at
     http://www.quantum-espresso.org/quote

     Parallel version (MPI), running on   128 processors

     MPI processes distributed on     1 nodes
     236928 MiB available memory on the printing compute node when the environment starts

     Waiting for input...
     Reading input from standard input

     Current dimensions of program PWSCF are:
     Max number of different atomic species (ntypx) = 10
     Max number of k-points (npk) =  40000
     Max angular momentum in pseudopotentials (lmaxx) =  4

     IMPORTANT: XC functional enforced from input :
     Exchange-correlation= VDW-DF2
                           (   1   4  13   0   2   0   0)
     Any further DFT definition will be discarded
     Please, verify this is what you really want

     Found identity + ( -0.5000 -0.5000  0.0000) symmetry
     This is a supercell, fractional translations are disabled

     K-points division:     npool     =       4
     R & G space division:  proc/nbgrp/npool/nimage =      32
     Subspace diagonalization in iterative solution of the eigenvalue problem:
     a serial algorithm will be used


     Parallelization info
     --------------------
     sticks:   dense  smooth     PW     G-vecs:    dense   smooth      PW
     Min         110     110     30                 6094     6094     884
     Max         111     111     31                 6099     6099     887
     Sum        3523    3523    981               195033   195033   28323

     Using Slab Decomposition



     bravais-lattice index     =            8
     lattice parameter (alat)  =       8.4310  a.u.
     unit-cell volume          =    1689.6302 (a.u.)^3
     number of atoms/cell      =           24
     number of atomic types    =            2
     number of electrons       =        64.00
     number of Kohn-Sham states=           32
     kinetic-energy cutoff     =      90.0000  Ry
     charge density cutoff     =     360.0000  Ry
     scf convergence threshold =      1.0E-07
     mixing beta               =       0.7000
     number of iterations used =            8  plain     mixing
     energy convergence thresh.=      1.0E-04
     force convergence thresh. =      1.0E-03
     Exchange-correlation= VDW-DF2
                           (   1   4  13   0   2   0   0)
     nstep                     =           50


     celldm(1)=   8.430978  celldm(2)=   1.732119  celldm(3)=   1.627721
     celldm(4)=   0.000000  celldm(5)=   0.000000  celldm(6)=   0.000000

     crystal axes: (cart. coord. in units of alat)
               a(1) = (   1.000000   0.000000   0.000000 )  
               a(2) = (   0.000000   1.732119   0.000000 )  
               a(3) = (   0.000000   0.000000   1.627721 )  

     reciprocal axes: (cart. coord. in units 2 pi/alat)
               b(1) = (  1.000000  0.000000  0.000000 )  
               b(2) = (  0.000000  0.577328  0.000000 )  
               b(3) = (  0.000000  0.000000  0.614356 )  


     PseudoPot. # 1 for H  read from file:
     ./H.pbe-van_ak.UPF
     MD5 check sum: 077eb6d537518a38cb46c6de387227b7
     Pseudo is Ultrasoft, Zval =  1.0
     Generated by new atomic code, or converted to UPF format
     Using radial grid of  615 points,  1 beta functions with: 
                l(1) =   0
     Q(r) pseudized with  8 coefficients,  rinner =    0.800

     PseudoPot. # 2 for O  read from file:
     ./O.pbe-van_ak.UPF
     MD5 check sum: 78c19812648e8988a0fe644b0f25305e
     Pseudo is Ultrasoft, Zval =  6.0
     Generated by new atomic code, or converted to UPF format
     Using radial grid of  737 points,  4 beta functions with: 
                l(1) =   0
                l(2) =   0
                l(3) =   1
                l(4) =   1
     Q(r) pseudized with  8 coefficients,  rinner =    0.800   0.800   0.800


     atomic species   valence    mass     pseudopotential
     H                 1.00     1.00800     H ( 1.00)
     O                 6.00    16.00000     O ( 1.00)

      2 Sym. Ops. (no inversion) found



   Cartesian axes

     site n.     atom                  positions (alat units)
         1        O      tau(   1) = (   0.0000000   1.1515127   0.1027092  )
         2        O      tau(   2) = (   0.0000000   0.5806063   0.9165697  )
         3        O      tau(   3) = (   0.5000000   0.2854532   0.1027092  )
         4        O      tau(   4) = (   0.5000000   1.4466659   0.9165697  )
         5        O      tau(   5) = (   0.5000000   1.4298643   1.5250118  )
         6        O      tau(   6) = (   0.5000000   0.3022548   0.7111513  )
         7        O      tau(   7) = (   0.0000000   0.5638048   1.5250118  )
         8        O      tau(   8) = (   0.0000000   1.1683143   0.7111513  )
         9        H      tau(   9) = (   0.0000000   1.1494343   0.3195216  )
        10        H      tau(  10) = (   0.0000000   0.5826848   1.1333822  )
        11        H      tau(  11) = (   0.5000000   0.2833747   0.3195216  )
        12        H      tau(  12) = (   0.5000000   1.4487443   1.1333822  )
        13        H      tau(  13) = (   0.0000000   0.9289355   0.0297873  )
        14        H      tau(  14) = (   0.0000000   0.8031836   0.8436478  )
        15        H      tau(  15) = (   0.5000000   0.0628759   0.0297873  )
        16        H      tau(  16) = (   0.5000000   1.6692431   0.8436478  )
        17        H      tau(  17) = (   0.6766000   1.3420459   1.5979337  )
        18        H      tau(  18) = (   0.3234000   0.3900732   0.7840732  )
        19        H      tau(  19) = (   0.6766000   0.3900732   0.7840732  )
        20        H      tau(  20) = (   0.3234000   1.3420459   1.5979337  )
        21        H      tau(  21) = (   0.1766000   0.4759863   1.5979337  )
        22        H      tau(  22) = (   0.8234000   1.2561327   0.7840732  )
        23        H      tau(  23) = (   0.1766000   1.2561327   0.7840732  )
        24        H      tau(  24) = (   0.8234000   0.4759863   1.5979337  )

     number of k points=   460

     Number of k-points >= 100: set verbosity='high' to print them.

     Dense  grid:   195033 G-vectors     FFT dimensions: (  54,  90,  90)

     Estimated max dynamical RAM per process >      51.08 MB

     Estimated total dynamical RAM >       6.25 GB

     Initial potential from superposition of free atoms

     starting charge      63.9998, renormalised to      64.0000


     %%%%%%%%%%%%%%%%%%%%%%%%%%%%%%%%%%%%%%%%%%%%%%%%%%%%%%%%%%%%%%%%%%%%%%%%
     %                                                                      %
     % You are using vdW-DF, which was implemented by the Thonhauser group. %
     % Please cite the following two papers that made this development      %
     % possible and the two reviews that describe the various versions:     %
     %                                                                      %
     %   T. Thonhauser et al., PRL 115, 136402 (2015).                      %
     %   T. Thonhauser et al., PRB 76, 125112 (2007).                       %
     %   K. Berland et al., Rep. Prog. Phys. 78, 066501 (2015).             %
     %   D.C. Langreth et al., J. Phys.: Condens. Matter 21, 084203 (2009). %
     %                                                                      %
     % If you are calculating stress with vdW-DF, please also cite:         %
     %                                                                      %
     %   R. Sabatini et al., J. Phys.: Condens. Matter 24, 424209 (2012).   %
     %                                                                      %
     %%%%%%%%%%%%%%%%%%%%%%%%%%%%%%%%%%%%%%%%%%%%%%%%%%%%%%%%%%%%%%%%%%%%%%%%

     %%%%%%%%%%%%%%%%%%%%%%%%%%%%%%%%%%%%%%%%%%%%%%%%%%%%%%%%%%%%%%%%%%%%%%%%
     %                                                                      %
     %  vdW-DF NEWS:                                                        %
     %                                                                      %
     %  * vdW-DF3 is now available. DOI: 10.1021/acs.jctc.0c00471           %
     %    use with input_dft = 'vdW-DF3-opt1' or 'vdW-DF3-opt2'             %
     %                                                                      %
     %  * Unscreened and range-separated hybrid vdW-DF-cx functionals       %
     %    DOI: 10.1063/1.4986522 and 10.1088/1361-648X/ac2ad2               %
     %    use with input_dft = 'vdW-DF-cx0'    and 'vdW-DF-ahcx'            %
     %  * Unscreened and range-separated hybrid vdW-DF2-b86r functionals    %
     %    DOI: 10.1063/1.4986522 and DOI: 10.1103/PhysRevX.12.041003        %
     %    use with input_dft = 'vdW-DF2-br0' and 'vdW-DF2-ahbr'             %
     %                                                                      %
     %%%%%%%%%%%%%%%%%%%%%%%%%%%%%%%%%%%%%%%%%%%%%%%%%%%%%%%%%%%%%%%%%%%%%%%%


     Starting wfcs are   48 randomized atomic wfcs

     total cpu time spent up to now is        6.5 secs

     per-process dynamical memory:    58.6 Mb

     Self-consistent Calculation

     iteration #  1     ecut=    90.00 Ry     beta= 0.70
     Davidson diagonalization with overlap
     ethr =  1.00E-02,  avg # of iterations =  2.0

     total cpu time spent up to now is       15.7 secs

     total energy              =    -277.15537111 Ry
     estimated scf accuracy    <       3.38955598 Ry

     iteration #  2     ecut=    90.00 Ry     beta= 0.70
     Davidson diagonalization with overlap
     ethr =  5.30E-03,  avg # of iterations =  3.0

     total cpu time spent up to now is       28.1 secs

     total energy              =    -278.24459161 Ry
     estimated scf accuracy    <       2.27895135 Ry

     iteration #  3     ecut=    90.00 Ry     beta= 0.70
     Davidson diagonalization with overlap
     ethr =  3.56E-03,  avg # of iterations =  2.0

     total cpu time spent up to now is       37.5 secs

     total energy              =    -278.56617900 Ry
     estimated scf accuracy    <       0.08705149 Ry

     iteration #  4     ecut=    90.00 Ry     beta= 0.70
     Davidson diagonalization with overlap
     ethr =  1.36E-04,  avg # of iterations =  4.0

     total cpu time spent up to now is       51.7 secs

     total energy              =    -278.63505036 Ry
     estimated scf accuracy    <       0.10992204 Ry

     iteration #  5     ecut=    90.00 Ry     beta= 0.70
     Davidson diagonalization with overlap
     ethr =  1.36E-04,  avg # of iterations =  2.0

     total cpu time spent up to now is       59.6 secs

     total energy              =    -278.63978864 Ry
     estimated scf accuracy    <       0.01720846 Ry

     iteration #  6     ecut=    90.00 Ry     beta= 0.70
     Davidson diagonalization with overlap
     ethr =  2.69E-05,  avg # of iterations =  2.0

     total cpu time spent up to now is       67.9 secs

     total energy              =    -278.63753514 Ry
     estimated scf accuracy    <       0.00785560 Ry

     iteration #  7     ecut=    90.00 Ry     beta= 0.70
     Davidson diagonalization with overlap
     ethr =  1.23E-05,  avg # of iterations =  3.0

     total cpu time spent up to now is       79.0 secs

     total energy              =    -278.64048162 Ry
     estimated scf accuracy    <       0.00010826 Ry

     iteration #  8     ecut=    90.00 Ry     beta= 0.70
     Davidson diagonalization with overlap
     ethr =  1.69E-07,  avg # of iterations =  4.6

     total cpu time spent up to now is       94.1 secs

     total energy              =    -278.64030327 Ry
     estimated scf accuracy    <       0.00197855 Ry

     iteration #  9     ecut=    90.00 Ry     beta= 0.70
     Davidson diagonalization with overlap
     ethr =  1.69E-07,  avg # of iterations =  3.0

     total cpu time spent up to now is      106.5 secs

     total energy              =    -278.64024327 Ry
     estimated scf accuracy    <       0.00054653 Ry

     iteration # 10     ecut=    90.00 Ry     beta= 0.70
     Davidson diagonalization with overlap
     ethr =  1.69E-07,  avg # of iterations =  2.0

     total cpu time spent up to now is      116.5 secs

     total energy              =    -278.64023280 Ry
     estimated scf accuracy    <       0.00013792 Ry

     iteration # 11     ecut=    90.00 Ry     beta= 0.70
     Davidson diagonalization with overlap
     ethr =  1.69E-07,  avg # of iterations =  2.0

     total cpu time spent up to now is      125.1 secs

     total energy              =    -278.64023158 Ry
     estimated scf accuracy    <       0.00002792 Ry

     iteration # 12     ecut=    90.00 Ry     beta= 0.70
     Davidson diagonalization with overlap
     ethr =  4.36E-08,  avg # of iterations =  3.0

     total cpu time spent up to now is      135.9 secs

     total energy              =    -278.64024263 Ry
     estimated scf accuracy    <       0.00000053 Ry

     iteration # 13     ecut=    90.00 Ry     beta= 0.70
     Davidson diagonalization with overlap
     ethr =  8.29E-10,  avg # of iterations =  3.7

     total cpu time spent up to now is      147.9 secs

     total energy              =    -278.64024282 Ry
     estimated scf accuracy    <       0.00000029 Ry

     iteration # 14     ecut=    90.00 Ry     beta= 0.70
     Davidson diagonalization with overlap
     ethr =  4.49E-10,  avg # of iterations =  2.0

     total cpu time spent up to now is      157.0 secs

     End of self-consistent calculation

     Number of k-points >= 100: set verbosity='high' to print the bands.

     highest occupied level (ev):    -3.6914

!    total energy              =    -278.64024285 Ry
     estimated scf accuracy    <       0.00000003 Ry

     The total energy is the sum of the following terms:
     one-electron contribution =    -238.74794193 Ry
     hartree contribution      =     140.33469766 Ry
     xc contribution           =     -70.96412458 Ry
     ewald contribution        =    -109.26287400 Ry

     convergence has been achieved in  14 iterations

     Forces acting on atoms (cartesian axes, Ry/au):

     atom    1 type  2   force =     0.00000000   -0.05393670   -0.06901119
     atom    2 type  2   force =     0.00000000    0.05393679   -0.06901030
     atom    3 type  2   force =     0.00000000   -0.05393717   -0.06901082
     atom    4 type  2   force =     0.00000000    0.05393693   -0.06901020
     atom    5 type  2   force =     0.00000000    0.11736489   -0.08261069
     atom    6 type  2   force =     0.00000000   -0.11736467   -0.08261053
     atom    7 type  2   force =     0.00000000    0.11736494   -0.08261069
     atom    8 type  2   force =     0.00000000   -0.11736469   -0.08261044
     atom    9 type  1   force =     0.00000000   -0.00303780    0.04367938
     atom   10 type  1   force =     0.00000000    0.00303779    0.04367866
     atom   11 type  1   force =     0.00000000   -0.00303784    0.04367937
     atom   12 type  1   force =     0.00000000    0.00303781    0.04367863
     atom   13 type  1   force =     0.00000000    0.05568101    0.01988720
     atom   14 type  1   force =     0.00000000   -0.05568098    0.01988716
     atom   15 type  1   force =     0.00000000    0.05568108    0.01988725
     atom   16 type  1   force =     0.00000000   -0.05568102    0.01988718
     atom   17 type  1   force =     0.07906295   -0.05866308    0.04402753
     atom   18 type  1   force =    -0.07906283    0.05866298    0.04402746
     atom   19 type  1   force =     0.07906283    0.05866298    0.04402746
     atom   20 type  1   force =    -0.07906295   -0.05866308    0.04402753
     atom   21 type  1   force =     0.07906300   -0.05866310    0.04402754
     atom   22 type  1   force =    -0.07906287    0.05866301    0.04402748
     atom   23 type  1   force =     0.07906287    0.05866301    0.04402748
     atom   24 type  1   force =    -0.07906300   -0.05866310    0.04402754

     Total force =     0.477263     Total SCF correction =     0.000177


     Computing stress (Cartesian axis) and pressure

          total   stress  (Ry/bohr**3)                   (kbar)     P=       48.04
   0.00064235   0.00000000   0.00000000           94.49        0.00        0.00
   0.00000000  -0.00004402  -0.00000000            0.00       -6.47       -0.00
   0.00000000  -0.00000000   0.00038146            0.00       -0.00       56.12


     BFGS Geometry Optimization
     Energy error            =      0.0E+00 Ry
     Gradient error          =      1.2E-01 Ry/Bohr

     number of scf cycles    =   1
     number of bfgs steps    =   0

     energy             new  =    -278.6402428458 Ry

     new trust radius        =       0.1435237104 bohr
     new conv_thr            =       0.0000001000 Ry


ATOMIC_POSITIONS (crystal)
O                0.0000000000        0.6611065684        0.0580712355
O                0.0000000000        0.3388934376        0.5580712774
O                0.5000000000        0.1611065362        0.0580712626
O                0.5000000000        0.8388934470        0.5580712847
O                0.5000000000        0.8335367986        0.9308802720
O                0.5000000000        0.1664632168        0.4308802537
O                0.0000000000        0.3335368019        0.9308802723
O                0.0000000000        0.6664632153        0.4308802602
H                0.0000000000        0.6633920088        0.1994828674
H                0.0000000000        0.3366079909        0.6994828446
H                0.5000000000        0.1633920063        0.1994828662
H                0.5000000000        0.8366079918        0.6994828424
H                0.0000000000        0.5401128683        0.0197491592
H                0.0000000000        0.4598871335        0.5197491521
H                0.5000000000        0.0401128732        0.0197491621
H                0.5000000000        0.9598871306        0.5197491536
H                0.6859776508        0.7707829357        0.9849082392
H                0.3140223637        0.2292170580        0.4849082342
H                0.6859776363        0.2292170580        0.4849082342
H                0.3140223492        0.7707829357        0.9849082392
H                0.1859776567        0.2707829337        0.9849082405
H                0.8140223586        0.7292170601        0.4849082361
H                0.1859776414        0.7292170601        0.4849082361
H                0.8140223433        0.2707829337        0.9849082405



     Writing config-only to output data dir ./iceIh_vdw/iceIh_vdw.save/ :
     XML data file
     NEW-OLD atomic charge density approx. for the potential

     total cpu time spent up to now is      166.7 secs

     per-process dynamical memory:    59.0 Mb

     Self-consistent Calculation

     iteration #  1     ecut=    90.00 Ry     beta= 0.70
     Davidson diagonalization with overlap
     ethr =  1.00E-06,  avg # of iterations = 10.2

     total cpu time spent up to now is      195.4 secs

     total energy              =    -278.66297752 Ry
     estimated scf accuracy    <       0.06889839 Ry

     iteration #  2     ecut=    90.00 Ry     beta= 0.70
     Davidson diagonalization with overlap
     ethr =  1.08E-04,  avg # of iterations =  3.0

     total cpu time spent up to now is      206.9 secs

     total energy              =    -278.67758557 Ry
     estimated scf accuracy    <       0.03805141 Ry

     iteration #  3     ecut=    90.00 Ry     beta= 0.70
     Davidson diagonalization with overlap
     ethr =  5.95E-05,  avg # of iterations =  2.9

     total cpu time spent up to now is      216.8 secs

     total energy              =    -278.68604092 Ry
     estimated scf accuracy    <       0.00054728 Ry

     iteration #  4     ecut=    90.00 Ry     beta= 0.70
     Davidson diagonalization with overlap
     ethr =  8.55E-07,  avg # of iterations =  5.0

     total cpu time spent up to now is      231.6 secs

     total energy              =    -278.68635050 Ry
     estimated scf accuracy    <       0.00084838 Ry

     iteration #  5     ecut=    90.00 Ry     beta= 0.70
     Davidson diagonalization with overlap
     ethr =  8.55E-07,  avg # of iterations =  3.0

     total cpu time spent up to now is      242.2 secs

     total energy              =    -278.68650413 Ry
     estimated scf accuracy    <       0.00001769 Ry

     iteration #  6     ecut=    90.00 Ry     beta= 0.70
     Davidson diagonalization with overlap
     ethr =  2.76E-08,  avg # of iterations =  5.3

     total cpu time spent up to now is      257.6 secs

     total energy              =    -278.68651127 Ry
     estimated scf accuracy    <       0.00005822 Ry

     iteration #  7     ecut=    90.00 Ry     beta= 0.70
     Davidson diagonalization with overlap
     ethr =  2.76E-08,  avg # of iterations =  3.4

     total cpu time spent up to now is      268.5 secs

     total energy              =    -278.68651640 Ry
     estimated scf accuracy    <       0.00000337 Ry

     iteration #  8     ecut=    90.00 Ry     beta= 0.70
     Davidson diagonalization with overlap
     ethr =  5.26E-09,  avg # of iterations =  3.1

     total cpu time spent up to now is      279.6 secs

     total energy              =    -278.68651782 Ry
     estimated scf accuracy    <       0.00000023 Ry

     iteration #  9     ecut=    90.00 Ry     beta= 0.70
     Davidson diagonalization with overlap
     ethr =  3.65E-10,  avg # of iterations =  2.4

     total cpu time spent up to now is      288.9 secs

     total energy              =    -278.68651777 Ry
     estimated scf accuracy    <       0.00000021 Ry

     iteration # 10     ecut=    90.00 Ry     beta= 0.70
     Davidson diagonalization with overlap
     ethr =  3.29E-10,  avg # of iterations =  2.0

     total cpu time spent up to now is      298.0 secs

     End of self-consistent calculation

     Number of k-points >= 100: set verbosity='high' to print the bands.

     highest occupied level (ev):    -3.6673

!    total energy              =    -278.68651779 Ry
     estimated scf accuracy    <       0.00000001 Ry

     The total energy is the sum of the following terms:
     one-electron contribution =    -233.09966897 Ry
     hartree contribution      =     137.79112211 Ry
     xc contribution           =     -70.40306582 Ry
     ewald contribution        =    -112.97490510 Ry

     convergence has been achieved in  10 iterations

     Forces acting on atoms (cartesian axes, Ry/au):

     atom    1 type  2   force =     0.00000000    0.04831076    0.04528841
     atom    2 type  2   force =     0.00000000   -0.04831065    0.04528776
     atom    3 type  2   force =     0.00000000    0.04831122    0.04528822
     atom    4 type  2   force =     0.00000000   -0.04831080    0.04528770
     atom    5 type  2   force =     0.00000000   -0.04345494    0.03985961
     atom    6 type  2   force =     0.00000000    0.04345482    0.03985957
     atom    7 type  2   force =     0.00000000   -0.04345498    0.03985966
     atom    8 type  2   force =     0.00000000    0.04345482    0.03985955
     atom    9 type  1   force =     0.00000000   -0.00222753   -0.02981323
     atom   10 type  1   force =     0.00000000    0.00222757   -0.02981272
     atom   11 type  1   force =     0.00000000   -0.00222759   -0.02981302
     atom   12 type  1   force =     0.00000000    0.00222758   -0.02981264
     atom   13 type  1   force =     0.00000000   -0.03496667   -0.01334436
     atom   14 type  1   force =     0.00000000    0.03496654   -0.01334427
     atom   15 type  1   force =     0.00000000   -0.03496704   -0.01334442
     atom   16 type  1   force =     0.00000000    0.03496667   -0.01334430
     atom   17 type  1   force =    -0.03799450    0.01582089   -0.02099520
     atom   18 type  1   force =     0.03799442   -0.01582084   -0.02099517
     atom   19 type  1   force =    -0.03799442   -0.01582084   -0.02099517
     atom   20 type  1   force =     0.03799450    0.01582089   -0.02099520
     atom   21 type  1   force =    -0.03799454    0.01582091   -0.02099522
     atom   22 type  1   force =     0.03799444   -0.01582084   -0.02099517
     atom   23 type  1   force =    -0.03799444   -0.01582084   -0.02099517
     atom   24 type  1   force =     0.03799454    0.01582091   -0.02099522

     Total force =     0.240216     Total SCF correction =     0.000054


     Computing stress (Cartesian axis) and pressure

          total   stress  (Ry/bohr**3)                   (kbar)     P=      -16.91
  -0.00030166   0.00000000   0.00000000          -44.38        0.00        0.00
   0.00000000   0.00012535   0.00000000            0.00       18.44        0.00
   0.00000000   0.00000000  -0.00016849            0.00        0.00      -24.79

     Energy error            =      4.6E-02 Ry
     Gradient error          =      4.8E-02 Ry/Bohr

     number of scf cycles    =   2
     number of bfgs steps    =   1

     energy             old  =    -278.6402428458 Ry
     energy             new  =    -278.6865177924 Ry

     CASE: energy            _new < energy            _old

     new trust radius        =       0.0438386763 bohr
     new conv_thr            =       0.0000000483 Ry


ATOMIC_POSITIONS (crystal)
O                0.0000000000        0.6633031856        0.0602485468
O                0.0000000000        0.3366968252        0.5602485575
O                0.5000000000        0.1633031743        0.0602485651
O                0.5000000000        0.8366968278        0.5602485619
O                0.5000000000        0.8316099118        0.9327800398
O                0.5000000000        0.1683900981        0.4327800194
O                0.0000000000        0.3316099131        0.9327800425
O                0.0000000000        0.6683900968        0.4327800252
H                0.0000000000        0.6632867992        0.1980482252
H                0.0000000000        0.3367132025        0.6980482272
H                0.5000000000        0.1632867937        0.1980482344
H                0.5000000000        0.8367132042        0.6980482291
H                0.0000000000        0.5385348174        0.0191072699
H                0.0000000000        0.4614651783        0.5191072671
H                0.5000000000        0.0385348051        0.0191072700
H                0.5000000000        0.9614651814        0.5191072672
H                0.6830304446        0.7714731416        0.9839079658
H                0.3169695638        0.2285268545        0.4839079624
H                0.6830304362        0.2285268545        0.4839079624
H                0.3169695554        0.7714731416        0.9839079658
H                0.1830304474        0.2714731404        0.9839079665
H                0.8169695600        0.7285268563        0.4839079642
H                0.1830304400        0.7285268563        0.4839079642
H                0.8169695526        0.2714731404        0.9839079665



     Writing config-only to output data dir ./iceIh_vdw/iceIh_vdw.save/ :
     XML data file
     NEW-OLD atomic charge density approx. for the potential

     total cpu time spent up to now is      307.9 secs

     per-process dynamical memory:    60.8 Mb

     Self-consistent Calculation

     iteration #  1     ecut=    90.00 Ry     beta= 0.70
     Davidson diagonalization with overlap
     ethr =  1.00E-06,  avg # of iterations =  8.0

     total cpu time spent up to now is      329.5 secs

     total energy              =    -278.70526819 Ry
     estimated scf accuracy    <       0.00665515 Ry

     iteration #  2     ecut=    90.00 Ry     beta= 0.70
     Davidson diagonalization with overlap
     ethr =  1.04E-05,  avg # of iterations =  3.0

     total cpu time spent up to now is      340.5 secs

     total energy              =    -278.70665588 Ry
     estimated scf accuracy    <       0.00255080 Ry

     iteration #  3     ecut=    90.00 Ry     beta= 0.70
     Davidson diagonalization with overlap
     ethr =  3.99E-06,  avg # of iterations =  3.0

     total cpu time spent up to now is      351.0 secs

     total energy              =    -278.70726948 Ry
     estimated scf accuracy    <       0.00008718 Ry

     iteration #  4     ecut=    90.00 Ry     beta= 0.70
     Davidson diagonalization with overlap
     ethr =  1.36E-07,  avg # of iterations =  3.1

     total cpu time spent up to now is      361.3 secs

     total energy              =    -278.70728748 Ry
     estimated scf accuracy    <       0.00001996 Ry

     iteration #  5     ecut=    90.00 Ry     beta= 0.70
     Davidson diagonalization with overlap
     ethr =  3.12E-08,  avg # of iterations =  3.3

     total cpu time spent up to now is      372.4 secs

     total energy              =    -278.70729393 Ry
     estimated scf accuracy    <       0.00000100 Ry

     iteration #  6     ecut=    90.00 Ry     beta= 0.70
     Davidson diagonalization with overlap
     ethr =  1.56E-09,  avg # of iterations =  2.5

     total cpu time spent up to now is      382.4 secs

     total energy              =    -278.70729390 Ry
     estimated scf accuracy    <       0.00000052 Ry

     iteration #  7     ecut=    90.00 Ry     beta= 0.70
     Davidson diagonalization with overlap
     ethr =  8.13E-10,  avg # of iterations =  3.2

     total cpu time spent up to now is      393.2 secs

     End of self-consistent calculation

     Number of k-points >= 100: set verbosity='high' to print the bands.

     highest occupied level (ev):    -3.6971

!    total energy              =    -278.70729404 Ry
     estimated scf accuracy    <       0.00000003 Ry

     The total energy is the sum of the following terms:
     one-electron contribution =    -234.34310921 Ry
     hartree contribution      =     138.35200857 Ry
     xc contribution           =     -70.52706701 Ry
     ewald contribution        =    -112.18912639 Ry

     convergence has been achieved in   7 iterations

     Forces acting on atoms (cartesian axes, Ry/au):

     atom    1 type  2   force =     0.00000000   -0.00768229   -0.00277828
     atom    2 type  2   force =     0.00000000    0.00768216   -0.00277835
     atom    3 type  2   force =     0.00000000   -0.00768232   -0.00277843
     atom    4 type  2   force =     0.00000000    0.00768218   -0.00277839
     atom    5 type  2   force =     0.00000000   -0.00704183    0.01471362
     atom    6 type  2   force =     0.00000000    0.00704179    0.01471364
     atom    7 type  2   force =     0.00000000   -0.00704185    0.01471362
     atom    8 type  2   force =     0.00000000    0.00704181    0.01471362
     atom    9 type  1   force =     0.00000000   -0.00075363   -0.00186408
     atom   10 type  1   force =     0.00000000    0.00075366   -0.00186400
     atom   11 type  1   force =     0.00000000   -0.00075365   -0.00186400
     atom   12 type  1   force =     0.00000000    0.00075366   -0.00186398
     atom   13 type  1   force =     0.00000000    0.01348701    0.00227491
     atom   14 type  1   force =     0.00000000   -0.01348692    0.00227491
     atom   15 type  1   force =     0.00000000    0.01348706    0.00227496
     atom   16 type  1   force =     0.00000000   -0.01348693    0.00227492
     atom   17 type  1   force =    -0.01509283    0.00070118   -0.00617309
     atom   18 type  1   force =     0.01509280   -0.00070115   -0.00617309
     atom   19 type  1   force =    -0.01509280   -0.00070115   -0.00617309
     atom   20 type  1   force =     0.01509283    0.00070118   -0.00617309
     atom   21 type  1   force =    -0.01509285    0.00070118   -0.00617309
     atom   22 type  1   force =     0.01509282   -0.00070116   -0.00617309
     atom   23 type  1   force =    -0.01509282   -0.00070116   -0.00617309
     atom   24 type  1   force =     0.01509285    0.00070118   -0.00617309

     Total force =     0.065014     Total SCF correction =     0.000110


     Computing stress (Cartesian axis) and pressure

          total   stress  (Ry/bohr**3)                   (kbar)     P=       -5.25
  -0.00009705   0.00000000   0.00000000          -14.28        0.00        0.00
   0.00000000  -0.00003821  -0.00000000            0.00       -5.62       -0.00
   0.00000000  -0.00000000   0.00002816            0.00       -0.00        4.14

     Energy error            =      2.1E-02 Ry
     Gradient error          =      1.5E-02 Ry/Bohr

     number of scf cycles    =   3
     number of bfgs steps    =   2

     energy             old  =    -278.6865177924 Ry
     energy             new  =    -278.7072940354 Ry

     CASE: energy            _new < energy            _old

     new trust radius        =       0.0204193012 bohr
     new conv_thr            =       0.0000000151 Ry


ATOMIC_POSITIONS (crystal)
O                0.0000000000        0.6628472044        0.0601561930
O                0.0000000000        0.3371527973        0.5601561958
O                0.5000000000        0.1628471921        0.0601561982
O                0.5000000000        0.8371528004        0.5601561966
O                0.5000000000        0.8309419715        0.9340872227
O                0.5000000000        0.1690580350        0.4340872036
O                0.0000000000        0.3309419712        0.9340872261
O                0.0000000000        0.6690580350        0.4340872084
H                0.0000000000        0.6632259135        0.1978124989
H                0.0000000000        0.3367740907        0.6978125091
H                0.5000000000        0.1632259064        0.1978125154
H                0.5000000000        0.8367740926        0.6978125131
H                0.0000000000        0.5394586132        0.0192518184
H                0.0000000000        0.4605413890        0.5192518158
H                0.5000000000        0.0394586043        0.0192518219
H                0.5000000000        0.9605413911        0.5192518166
H                0.6808622553        0.7715808435        0.9833461400
H                0.3191377487        0.2284191543        0.4833461369
H                0.6808622513        0.2284191543        0.4833461369
H                0.3191377447        0.7715808435        0.9833461400
H                0.1808622556        0.2715808428        0.9833461408
H                0.8191377473        0.7284191556        0.4833461385
H                0.1808622527        0.7284191556        0.4833461385
H                0.8191377444        0.2715808428        0.9833461408



     Writing config-only to output data dir ./iceIh_vdw/iceIh_vdw.save/ :
     XML data file
     NEW-OLD atomic charge density approx. for the potential

     total cpu time spent up to now is      402.9 secs

     per-process dynamical memory:    60.8 Mb

     Self-consistent Calculation

     iteration #  1     ecut=    90.00 Ry     beta= 0.70
     Davidson diagonalization with overlap
     ethr =  1.00E-06,  avg # of iterations =  5.1

     total cpu time spent up to now is      419.2 secs

     total energy              =    -278.70877215 Ry
     estimated scf accuracy    <       0.00143789 Ry

     iteration #  2     ecut=    90.00 Ry     beta= 0.70
     Davidson diagonalization with overlap
     ethr =  2.25E-06,  avg # of iterations =  3.0

     total cpu time spent up to now is      430.7 secs

     total energy              =    -278.70913851 Ry
     estimated scf accuracy    <       0.00072001 Ry

     iteration #  3     ecut=    90.00 Ry     beta= 0.70
     Davidson diagonalization with overlap
     ethr =  1.13E-06,  avg # of iterations =  2.2

     total cpu time spent up to now is      440.1 secs

     total energy              =    -278.70927629 Ry
     estimated scf accuracy    <       0.00001891 Ry

     iteration #  4     ecut=    90.00 Ry     beta= 0.70
     Davidson diagonalization with overlap
     ethr =  2.96E-08,  avg # of iterations =  4.2

     total cpu time spent up to now is      453.8 secs

     total energy              =    -278.70928860 Ry
     estimated scf accuracy    <       0.00001814 Ry

     iteration #  5     ecut=    90.00 Ry     beta= 0.70
     Davidson diagonalization with overlap
     ethr =  2.83E-08,  avg # of iterations =  2.0

     total cpu time spent up to now is      463.0 secs

     total energy              =    -278.70928962 Ry
     estimated scf accuracy    <       0.00000217 Ry

     iteration #  6     ecut=    90.00 Ry     beta= 0.70
     Davidson diagonalization with overlap
     ethr =  3.39E-09,  avg # of iterations =  3.7

     total cpu time spent up to now is      476.2 secs

     total energy              =    -278.70929065 Ry
     estimated scf accuracy    <       0.00000169 Ry

     iteration #  7     ecut=    90.00 Ry     beta= 0.70
     Davidson diagonalization with overlap
     ethr =  2.65E-09,  avg # of iterations =  2.0

     total cpu time spent up to now is      484.8 secs

     total energy              =    -278.70929074 Ry
     estimated scf accuracy    <       0.00000019 Ry

     iteration #  8     ecut=    90.00 Ry     beta= 0.70
     Davidson diagonalization with overlap
     ethr =  3.03E-10,  avg # of iterations =  3.1

     total cpu time spent up to now is      496.3 secs

     End of self-consistent calculation

     Number of k-points >= 100: set verbosity='high' to print the bands.

     highest occupied level (ev):    -3.7217

!    total energy              =    -278.70929082 Ry
     estimated scf accuracy    <       0.00000001 Ry

     The total energy is the sum of the following terms:
     one-electron contribution =    -235.56936723 Ry
     hartree contribution      =     138.90323220 Ry
     xc contribution           =     -70.64815708 Ry
     ewald contribution        =    -111.39499870 Ry

     convergence has been achieved in   8 iterations

     Forces acting on atoms (cartesian axes, Ry/au):

     atom    1 type  2   force =     0.00000000    0.00493915    0.00144751
     atom    2 type  2   force =     0.00000000   -0.00493913    0.00144758
     atom    3 type  2   force =     0.00000000    0.00493920    0.00144762
     atom    4 type  2   force =     0.00000000   -0.00493914    0.00144762
     atom    5 type  2   force =     0.00000000    0.01155110   -0.00273423
     atom    6 type  2   force =     0.00000000   -0.01155111   -0.00273420
     atom    7 type  2   force =     0.00000000    0.01155111   -0.00273424
     atom    8 type  2   force =     0.00000000   -0.01155111   -0.00273421
     atom    9 type  1   force =     0.00000000   -0.00148121   -0.00204823
     atom   10 type  1   force =     0.00000000    0.00148121   -0.00204830
     atom   11 type  1   force =     0.00000000   -0.00148121   -0.00204835
     atom   12 type  1   force =     0.00000000    0.00148121   -0.00204834
     atom   13 type  1   force =     0.00000000    0.00117620   -0.00034768
     atom   14 type  1   force =     0.00000000   -0.00117622   -0.00034767
     atom   15 type  1   force =     0.00000000    0.00117618   -0.00034768
     atom   16 type  1   force =     0.00000000   -0.00117622   -0.00034767
     atom   17 type  1   force =     0.00086630   -0.00853881    0.00184131
     atom   18 type  1   force =    -0.00086631    0.00853881    0.00184130
     atom   19 type  1   force =     0.00086631    0.00853881    0.00184130
     atom   20 type  1   force =    -0.00086630   -0.00853881    0.00184131
     atom   21 type  1   force =     0.00086631   -0.00853882    0.00184131
     atom   22 type  1   force =    -0.00086631    0.00853881    0.00184130
     atom   23 type  1   force =     0.00086631    0.00853881    0.00184130
     atom   24 type  1   force =    -0.00086631   -0.00853882    0.00184131

     Total force =     0.036298     Total SCF correction =     0.000068


     Computing stress (Cartesian axis) and pressure

          total   stress  (Ry/bohr**3)                   (kbar)     P=        7.87
   0.00003542   0.00000000   0.00000000            5.21        0.00        0.00
   0.00000000   0.00007039   0.00000000            0.00       10.35        0.00
   0.00000000   0.00000000   0.00005474            0.00        0.00        8.05

     Energy error            =      2.0E-03 Ry
     Gradient error          =      1.2E-02 Ry/Bohr

     number of scf cycles    =   4
     number of bfgs steps    =   3

     energy             old  =    -278.7072940354 Ry
     energy             new  =    -278.7092908197 Ry

     CASE: energy            _new < energy            _old

     new trust radius        =       0.0083039532 bohr
     new conv_thr            =       0.0000000116 Ry


ATOMIC_POSITIONS (crystal)
O                0.0000000000        0.6631009697        0.0602551750
O                0.0000000000        0.3368990319        0.5602551810
O                0.5000000000        0.1631009604        0.0602551852
O                0.5000000000        0.8368990345        0.5602551832
O                0.5000000000        0.8315105612        0.9340942518
O                0.5000000000        0.1684894443        0.4340942348
O                0.0000000000        0.3315105616        0.9340942549
O                0.0000000000        0.6684894442        0.4340942390
H                0.0000000000        0.6631314398        0.1976446751
H                0.0000000000        0.3368685650        0.6976446821
H                0.5000000000        0.1631314319        0.1976446857
H                0.5000000000        0.8368685671        0.6976446845
H                0.0000000000        0.5396216821        0.0192415241
H                0.0000000000        0.4603783194        0.5192415222
H                0.5000000000        0.0396216719        0.0192415279
H                0.5000000000        0.9603783218        0.5192415230
H                0.6806641506        0.7711067964        0.9833821931
H                0.3193358518        0.2288932017        0.4833821896
H                0.6806641482        0.2288932017        0.4833821896
H                0.3193358494        0.7711067964        0.9833821931
H                0.1806641509        0.2711067954        0.9833821942
H                0.8193358513        0.7288932029        0.4833821913
H                0.1806641487        0.7288932029        0.4833821913
H                0.8193358491        0.2711067954        0.9833821942



     Writing config-only to output data dir ./iceIh_vdw/iceIh_vdw.save/ :
     XML data file
     NEW-OLD atomic charge density approx. for the potential

     total cpu time spent up to now is      506.4 secs

     per-process dynamical memory:    61.9 Mb

     Self-consistent Calculation

     iteration #  1     ecut=    90.00 Ry     beta= 0.70
     Davidson diagonalization with overlap
     ethr =  1.00E-06,  avg # of iterations =  3.0

     total cpu time spent up to now is      519.4 secs

     total energy              =    -278.71002031 Ry
     estimated scf accuracy    <       0.00008699 Ry

     iteration #  2     ecut=    90.00 Ry     beta= 0.70
     Davidson diagonalization with overlap
     ethr =  1.36E-07,  avg # of iterations =  3.0

     total cpu time spent up to now is      530.6 secs

     total energy              =    -278.71003958 Ry
     estimated scf accuracy    <       0.00003452 Ry

     iteration #  3     ecut=    90.00 Ry     beta= 0.70
     Davidson diagonalization with overlap
     ethr =  5.39E-08,  avg # of iterations =  3.0

     total cpu time spent up to now is      540.9 secs

     total energy              =    -278.71004758 Ry
     estimated scf accuracy    <       0.00000137 Ry

     iteration #  4     ecut=    90.00 Ry     beta= 0.70
     Davidson diagonalization with overlap
     ethr =  2.14E-09,  avg # of iterations =  2.8

     total cpu time spent up to now is      551.5 secs

     total energy              =    -278.71004782 Ry
     estimated scf accuracy    <       0.00000043 Ry

     iteration #  5     ecut=    90.00 Ry     beta= 0.70
     Davidson diagonalization with overlap
     ethr =  6.74E-10,  avg # of iterations =  2.0

     total cpu time spent up to now is      560.7 secs

     total energy              =    -278.71004787 Ry
     estimated scf accuracy    <       0.00000004 Ry

     iteration #  6     ecut=    90.00 Ry     beta= 0.70
     Davidson diagonalization with overlap
     ethr =  6.60E-11,  avg # of iterations =  4.2

     total cpu time spent up to now is      573.1 secs

     total energy              =    -278.71004788 Ry
     estimated scf accuracy    <       0.00000003 Ry

     iteration #  7     ecut=    90.00 Ry     beta= 0.70
     Davidson diagonalization with overlap
     ethr =  4.31E-11,  avg # of iterations =  2.1

     total cpu time spent up to now is      582.1 secs

     End of self-consistent calculation

     Number of k-points >= 100: set verbosity='high' to print the bands.

     highest occupied level (ev):    -3.7259

!    total energy              =    -278.71004789 Ry
     estimated scf accuracy    <          5.4E-10 Ry

     The total energy is the sum of the following terms:
     one-electron contribution =    -235.43412796 Ry
     hartree contribution      =     138.84112624 Ry
     xc contribution           =     -70.63394536 Ry
     ewald contribution        =    -111.48310081 Ry

     convergence has been achieved in   7 iterations

     Forces acting on atoms (cartesian axes, Ry/au):

     atom    1 type  2   force =     0.00000000    0.00339832   -0.00181175
     atom    2 type  2   force =     0.00000000   -0.00339830   -0.00181175
     atom    3 type  2   force =     0.00000000    0.00339830   -0.00181178
     atom    4 type  2   force =     0.00000000   -0.00339829   -0.00181175
     atom    5 type  2   force =     0.00000000    0.00536386    0.00151280
     atom    6 type  2   force =     0.00000000   -0.00536386    0.00151284
     atom    7 type  2   force =     0.00000000    0.00536386    0.00151280
     atom    8 type  2   force =     0.00000000   -0.00536387    0.00151282
     atom    9 type  1   force =     0.00000000   -0.00107142    0.00087321
     atom   10 type  1   force =     0.00000000    0.00107143    0.00087320
     atom   11 type  1   force =     0.00000000   -0.00107143    0.00087320
     atom   12 type  1   force =     0.00000000    0.00107143    0.00087320
     atom   13 type  1   force =     0.00000000    0.00190536   -0.00024213
     atom   14 type  1   force =     0.00000000   -0.00190539   -0.00024212
     atom   15 type  1   force =     0.00000000    0.00190539   -0.00024212
     atom   16 type  1   force =     0.00000000   -0.00190539   -0.00024212
     atom   17 type  1   force =    -0.00141319   -0.00521468   -0.00016607
     atom   18 type  1   force =     0.00141319    0.00521468   -0.00016607
     atom   19 type  1   force =    -0.00141319    0.00521468   -0.00016607
     atom   20 type  1   force =     0.00141319   -0.00521468   -0.00016607
     atom   21 type  1   force =    -0.00141319   -0.00521468   -0.00016606
     atom   22 type  1   force =     0.00141319    0.00521468   -0.00016607
     atom   23 type  1   force =    -0.00141319    0.00521468   -0.00016607
     atom   24 type  1   force =     0.00141319   -0.00521468   -0.00016606

     Total force =     0.020969     Total SCF correction =     0.000026


     Computing stress (Cartesian axis) and pressure

          total   stress  (Ry/bohr**3)                   (kbar)     P=        6.42
   0.00001446   0.00000000   0.00000000            2.13        0.00        0.00
   0.00000000   0.00005445   0.00000000            0.00        8.01        0.00
   0.00000000   0.00000000   0.00006200            0.00        0.00        9.12

     Energy error            =      7.6E-04 Ry
     Gradient error          =      5.4E-03 Ry/Bohr

     number of scf cycles    =   5
     number of bfgs steps    =   4

     energy             old  =    -278.7092908197 Ry
     energy             new  =    -278.7100478892 Ry

     CASE: energy            _new < energy            _old

     new trust radius        =       0.0091343485 bohr
     new conv_thr            =       0.0000000054 Ry


ATOMIC_POSITIONS (crystal)
O                0.0000000000        0.6634400400        0.0601788443
O                0.0000000000        0.3365599623        0.5601788502
O                0.5000000000        0.1634400310        0.0601788529
O                0.5000000000        0.8365599648        0.5601788522
O                0.5000000000        0.8320295848        0.9343739611
O                0.5000000000        0.1679704196        0.4343739476
O                0.0000000000        0.3320295853        0.9343739641
O                0.0000000000        0.6679704195        0.4343739505
H                0.0000000000        0.6630079535        0.1976004830
H                0.0000000000        0.3369920524        0.6976004892
H                0.5000000000        0.1630079447        0.1976004917
H                0.5000000000        0.8369920546        0.6976004911
H                0.0000000000        0.5398910309        0.0192227076
H                0.0000000000        0.4601089691        0.5192227069
H                0.5000000000        0.0398910223        0.0192227130
H                0.5000000000        0.9601089713        0.5192227079
H                0.6801484318        0.7705606813        0.9833120077
H                0.3198515692        0.2294393172        0.4833120038
H                0.6801484308        0.2294393172        0.4833120038
H                0.3198515682        0.7705606813        0.9833120077
H                0.1801484315        0.2705606802        0.9833120093
H                0.8198515695        0.7294393183        0.4833120057
H                0.1801484305        0.7294393183        0.4833120057
H                0.8198515685        0.2705606802        0.9833120093



     Writing config-only to output data dir ./iceIh_vdw/iceIh_vdw.save/ :
     XML data file
     NEW-OLD atomic charge density approx. for the potential

     total cpu time spent up to now is      591.9 secs

     per-process dynamical memory:    60.8 Mb

     Self-consistent Calculation

     iteration #  1     ecut=    90.00 Ry     beta= 0.70
     Davidson diagonalization with overlap
     ethr =  1.00E-06,  avg # of iterations =  3.0

     Threshold (ethr) on eigenvalues was too large:
     Diagonalizing with lowered threshold

     Davidson diagonalization with overlap
     ethr =  9.27E-08,  avg # of iterations =  2.0

     total cpu time spent up to now is      613.2 secs

     total energy              =    -278.71058822 Ry
     estimated scf accuracy    <       0.00006712 Ry

     iteration #  2     ecut=    90.00 Ry     beta= 0.70
     Davidson diagonalization with overlap
     ethr =  1.05E-07,  avg # of iterations =  2.0

     total cpu time spent up to now is      623.1 secs

     total energy              =    -278.71059906 Ry
     estimated scf accuracy    <       0.00000686 Ry

     iteration #  3     ecut=    90.00 Ry     beta= 0.70
     Davidson diagonalization with overlap
     ethr =  1.07E-08,  avg # of iterations =  2.3

     total cpu time spent up to now is      633.7 secs

     total energy              =    -278.71060086 Ry
     estimated scf accuracy    <       0.00000070 Ry

     iteration #  4     ecut=    90.00 Ry     beta= 0.70
     Davidson diagonalization with overlap
     ethr =  1.10E-09,  avg # of iterations =  2.0

     total cpu time spent up to now is      642.1 secs

     total energy              =    -278.71060096 Ry
     estimated scf accuracy    <       0.00000005 Ry

     iteration #  5     ecut=    90.00 Ry     beta= 0.70
     Davidson diagonalization with overlap
     ethr =  7.89E-11,  avg # of iterations =  3.0

     total cpu time spent up to now is      653.4 secs

     total energy              =    -278.71060097 Ry
     estimated scf accuracy    <       0.00000002 Ry

     iteration #  6     ecut=    90.00 Ry     beta= 0.70
     Davidson diagonalization with overlap
     ethr =  3.18E-11,  avg # of iterations =  2.1

     total cpu time spent up to now is      662.5 secs

     End of self-consistent calculation

     Number of k-points >= 100: set verbosity='high' to print the bands.

     highest occupied level (ev):    -3.7306

!    total energy              =    -278.71060097 Ry
     estimated scf accuracy    <          2.6E-09 Ry

     The total energy is the sum of the following terms:
     one-electron contribution =    -235.36824512 Ry
     hartree contribution      =     138.81036108 Ry
     xc contribution           =     -70.62658926 Ry
     ewald contribution        =    -111.52612767 Ry

     convergence has been achieved in   6 iterations

     Forces acting on atoms (cartesian axes, Ry/au):

     atom    1 type  2   force =     0.00000000    0.00206678   -0.00127368
     atom    2 type  2   force =     0.00000000   -0.00206678   -0.00127368
     atom    3 type  2   force =     0.00000000    0.00206678   -0.00127370
     atom    4 type  2   force =     0.00000000   -0.00206678   -0.00127369
     atom    5 type  2   force =     0.00000000    0.00162691    0.00312148
     atom    6 type  2   force =     0.00000000   -0.00162692    0.00312150
     atom    7 type  2   force =     0.00000000    0.00162691    0.00312148
     atom    8 type  2   force =     0.00000000   -0.00162692    0.00312150
     atom    9 type  1   force =     0.00000000   -0.00046492    0.00063241
     atom   10 type  1   force =     0.00000000    0.00046492    0.00063240
     atom   11 type  1   force =     0.00000000   -0.00046492    0.00063240
     atom   12 type  1   force =     0.00000000    0.00046492    0.00063240
     atom   13 type  1   force =     0.00000000    0.00209791   -0.00039671
     atom   14 type  1   force =     0.00000000   -0.00209791   -0.00039671
     atom   15 type  1   force =     0.00000000    0.00209792   -0.00039671
     atom   16 type  1   force =     0.00000000   -0.00209791   -0.00039671
     atom   17 type  1   force =    -0.00125031   -0.00304870   -0.00104175
     atom   18 type  1   force =     0.00125031    0.00304870   -0.00104175
     atom   19 type  1   force =    -0.00125031    0.00304870   -0.00104175
     atom   20 type  1   force =     0.00125031   -0.00304870   -0.00104175
     atom   21 type  1   force =    -0.00125031   -0.00304870   -0.00104175
     atom   22 type  1   force =     0.00125031    0.00304870   -0.00104175
     atom   23 type  1   force =    -0.00125031    0.00304870   -0.00104175
     atom   24 type  1   force =     0.00125031   -0.00304870   -0.00104175

     Total force =     0.013762     Total SCF correction =     0.000091


     Computing stress (Cartesian axis) and pressure

          total   stress  (Ry/bohr**3)                   (kbar)     P=        5.84
   0.00001414   0.00000000   0.00000000            2.08        0.00        0.00
   0.00000000   0.00004835   0.00000000            0.00        7.11        0.00
   0.00000000   0.00000000   0.00005652            0.00        0.00        8.31

     Energy error            =      5.5E-04 Ry
     Gradient error          =      3.1E-03 Ry/Bohr

     number of scf cycles    =   6
     number of bfgs steps    =   5

     energy             old  =    -278.7100478892 Ry
     energy             new  =    -278.7106009704 Ry

     CASE: energy            _new < energy            _old

     new trust radius        =       0.0137015227 bohr
     new conv_thr            =       0.0000000031 Ry


ATOMIC_POSITIONS (crystal)
O                0.0000000000        0.6639283428        0.0601072516
O                0.0000000000        0.3360716581        0.5601072588
O                0.5000000000        0.1639283369        0.0601072607
O                0.5000000000        0.8360716600        0.5601072607
O                0.5000000000        0.8326358025        0.9350151269
O                0.5000000000        0.1673641997        0.4350151186
O                0.0000000000        0.3326358032        0.9350151297
O                0.0000000000        0.6673642000        0.4350151198
H                0.0000000000        0.6628521462        0.1974936473
H                0.0000000000        0.3371478609        0.6974936517
H                0.5000000000        0.1628521365        0.1974936518
H                0.5000000000        0.8371478634        0.6974936529
H                0.0000000000        0.5403963679        0.0191631148
H                0.0000000000        0.4596036322        0.5191631152
H                0.5000000000        0.0403963593        0.0191631213
H                0.5000000000        0.9596036343        0.5191631165
H                0.6793707458        0.7697589168        0.9831104347
H                0.3206292534        0.2302410825        0.4831104301
H                0.6793707466        0.2302410825        0.4831104301
H                0.3206292542        0.7697589168        0.9831104347
H                0.1793707448        0.2697589155        0.9831104369
H                0.8206292549        0.7302410833        0.4831104321
H                0.1793707451        0.7302410833        0.4831104321
H                0.8206292552        0.2697589155        0.9831104369



     Writing config-only to output data dir ./iceIh_vdw/iceIh_vdw.save/ :
     XML data file
     NEW-OLD atomic charge density approx. for the potential

     total cpu time spent up to now is      672.3 secs

     per-process dynamical memory:    60.8 Mb

     Self-consistent Calculation

     iteration #  1     ecut=    90.00 Ry     beta= 0.70
     Davidson diagonalization with overlap
     ethr =  1.00E-06,  avg # of iterations =  4.0

     total cpu time spent up to now is      686.4 secs

     total energy              =    -278.71103701 Ry
     estimated scf accuracy    <       0.00012094 Ry

     iteration #  2     ecut=    90.00 Ry     beta= 0.70
     Davidson diagonalization with overlap
     ethr =  1.89E-07,  avg # of iterations =  2.0

     total cpu time spent up to now is      695.2 secs

     total energy              =    -278.71105261 Ry
     estimated scf accuracy    <       0.00000711 Ry

     iteration #  3     ecut=    90.00 Ry     beta= 0.70
     Davidson diagonalization with overlap
     ethr =  1.11E-08,  avg # of iterations =  2.6

     total cpu time spent up to now is      705.6 secs

     total energy              =    -278.71105433 Ry
     estimated scf accuracy    <       0.00000129 Ry

     iteration #  4     ecut=    90.00 Ry     beta= 0.70
     Davidson diagonalization with overlap
     ethr =  2.02E-09,  avg # of iterations =  2.5

     total cpu time spent up to now is      715.5 secs

     total energy              =    -278.71105464 Ry
     estimated scf accuracy    <       0.00000013 Ry

     iteration #  5     ecut=    90.00 Ry     beta= 0.70
     Davidson diagonalization with overlap
     ethr =  1.96E-10,  avg # of iterations =  2.1

     total cpu time spent up to now is      725.4 secs

     total energy              =    -278.71105466 Ry
     estimated scf accuracy    <       0.00000002 Ry

     iteration #  6     ecut=    90.00 Ry     beta= 0.70
     Davidson diagonalization with overlap
     ethr =  3.15E-11,  avg # of iterations =  2.1

     total cpu time spent up to now is      735.3 secs

     End of self-consistent calculation

     Number of k-points >= 100: set verbosity='high' to print the bands.

     highest occupied level (ev):    -3.7398

!    total energy              =    -278.71105466 Ry
     estimated scf accuracy    <          2.0E-09 Ry

     The total energy is the sum of the following terms:
     one-electron contribution =    -235.38183327 Ry
     hartree contribution      =     138.81466485 Ry
     xc contribution           =     -70.62681142 Ry
     ewald contribution        =    -111.51707483 Ry

     convergence has been achieved in   6 iterations

     Forces acting on atoms (cartesian axes, Ry/au):

     atom    1 type  2   force =     0.00000000    0.00094868   -0.00103603
     atom    2 type  2   force =     0.00000000   -0.00094866   -0.00103607
     atom    3 type  2   force =     0.00000000    0.00094865   -0.00103610
     atom    4 type  2   force =     0.00000000   -0.00094866   -0.00103608
     atom    5 type  2   force =     0.00000000   -0.00170893    0.00338385
     atom    6 type  2   force =     0.00000000    0.00170893    0.00338387
     atom    7 type  2   force =     0.00000000   -0.00170894    0.00338385
     atom    8 type  2   force =     0.00000000    0.00170893    0.00338386
     atom    9 type  1   force =     0.00000000    0.00027453    0.00096775
     atom   10 type  1   force =     0.00000000   -0.00027453    0.00096778
     atom   11 type  1   force =     0.00000000    0.00027454    0.00096780
     atom   12 type  1   force =     0.00000000   -0.00027453    0.00096779
     atom   13 type  1   force =     0.00000000    0.00148948   -0.00063922
     atom   14 type  1   force =     0.00000000   -0.00148949   -0.00063922
     atom   15 type  1   force =     0.00000000    0.00148951   -0.00063922
     atom   16 type  1   force =     0.00000000   -0.00148950   -0.00063922
     atom   17 type  1   force =     0.00010858   -0.00087710   -0.00133817
     atom   18 type  1   force =    -0.00010857    0.00087710   -0.00133817
     atom   19 type  1   force =     0.00010857    0.00087710   -0.00133817
     atom   20 type  1   force =    -0.00010858   -0.00087710   -0.00133817
     atom   21 type  1   force =     0.00010858   -0.00087710   -0.00133817
     atom   22 type  1   force =    -0.00010858    0.00087710   -0.00133817
     atom   23 type  1   force =     0.00010858    0.00087710   -0.00133817
     atom   24 type  1   force =    -0.00010858   -0.00087710   -0.00133817

     Total force =     0.010025     Total SCF correction =     0.000160


     Computing stress (Cartesian axis) and pressure

          total   stress  (Ry/bohr**3)                   (kbar)     P=        6.09
   0.00002418   0.00000000   0.00000000            3.56        0.00        0.00
   0.00000000   0.00004688   0.00000000            0.00        6.90        0.00
   0.00000000   0.00000000   0.00005314            0.00        0.00        7.82

     Energy error            =      4.5E-04 Ry
     Gradient error          =      3.4E-03 Ry/Bohr

     number of scf cycles    =   7
     number of bfgs steps    =   6

     energy             old  =    -278.7106009704 Ry
     energy             new  =    -278.7110546629 Ry

     CASE: energy            _new < energy            _old

     new trust radius        =       0.0087035251 bohr
     new conv_thr            =       0.0000000034 Ry


ATOMIC_POSITIONS (crystal)
O                0.0000000000        0.6642794125        0.0600279083
O                0.0000000000        0.3357205899        0.5600279129
O                0.5000000000        0.1642794051        0.0600279124
O                0.5000000000        0.8357205916        0.5600279141
O                0.5000000000        0.8328691270        0.9355987171
O                0.5000000000        0.1671308739        0.4355987123
O                0.0000000000        0.3328691272        0.9355987197
O                0.0000000000        0.6671308743        0.4355987121
H                0.0000000000        0.6627931651        0.1974822534
H                0.0000000000        0.3372068423        0.6974822592
H                0.5000000000        0.1627931556        0.1974822592
H                0.5000000000        0.8372068448        0.6974822602
H                0.0000000000        0.5407759145        0.0190707077
H                0.0000000000        0.4592240838        0.5190707092
H                0.5000000000        0.0407759090        0.0190707152
H                0.5000000000        0.9592240857        0.5190707105
H                0.6790394260        0.7692316060        0.9829102115
H                0.3209605730        0.2307683936        0.4829102068
H                0.6790394270        0.2307683936        0.4829102068
H                0.3209605740        0.7692316060        0.9829102115
H                0.1790394244        0.2692316049        0.9829102141
H                0.8209605744        0.7307683942        0.4829102088
H                0.1790394256        0.7307683942        0.4829102088
H                0.8209605756        0.2692316049        0.9829102141



     Writing config-only to output data dir ./iceIh_vdw/iceIh_vdw.save/ :
     XML data file
     NEW-OLD atomic charge density approx. for the potential

     total cpu time spent up to now is      745.0 secs

     per-process dynamical memory:    60.8 Mb

     Self-consistent Calculation

     iteration #  1     ecut=    90.00 Ry     beta= 0.70
     Davidson diagonalization with overlap
     ethr =  1.00E-06,  avg # of iterations =  3.0

     Threshold (ethr) on eigenvalues was too large:
     Diagonalizing with lowered threshold

     Davidson diagonalization with overlap
     ethr =  9.95E-08,  avg # of iterations =  2.0

     total cpu time spent up to now is      766.4 secs

     total energy              =    -278.71118984 Ry
     estimated scf accuracy    <       0.00007215 Ry

     iteration #  2     ecut=    90.00 Ry     beta= 0.70
     Davidson diagonalization with overlap
     ethr =  1.13E-07,  avg # of iterations =  2.0

     total cpu time spent up to now is      775.9 secs

     total energy              =    -278.71120000 Ry
     estimated scf accuracy    <       0.00000882 Ry

     iteration #  3     ecut=    90.00 Ry     beta= 0.70
     Davidson diagonalization with overlap
     ethr =  1.38E-08,  avg # of iterations =  3.0

     total cpu time spent up to now is      786.9 secs

     total energy              =    -278.71120241 Ry
     estimated scf accuracy    <       0.00000262 Ry

     iteration #  4     ecut=    90.00 Ry     beta= 0.70
     Davidson diagonalization with overlap
     ethr =  4.09E-09,  avg # of iterations =  2.5

     total cpu time spent up to now is      796.1 secs

     total energy              =    -278.71120285 Ry
     estimated scf accuracy    <       0.00000007 Ry

     iteration #  5     ecut=    90.00 Ry     beta= 0.70
     Davidson diagonalization with overlap
     ethr =  1.16E-10,  avg # of iterations =  5.4

     total cpu time spent up to now is      811.3 secs

     total energy              =    -278.71120288 Ry
     estimated scf accuracy    <       0.00000016 Ry

     iteration #  6     ecut=    90.00 Ry     beta= 0.70
     Davidson diagonalization with overlap
     ethr =  1.16E-10,  avg # of iterations =  3.0

     total cpu time spent up to now is      822.6 secs

     End of self-consistent calculation

     Number of k-points >= 100: set verbosity='high' to print the bands.

     highest occupied level (ev):    -3.7457

!    total energy              =    -278.71120291 Ry
     estimated scf accuracy    <          6.9E-10 Ry

     The total energy is the sum of the following terms:
     one-electron contribution =    -235.39638172 Ry
     hartree contribution      =     138.82066128 Ry
     xc contribution           =     -70.62772246 Ry
     ewald contribution        =    -111.50776002 Ry

     convergence has been achieved in   6 iterations

     Forces acting on atoms (cartesian axes, Ry/au):

     atom    1 type  2   force =     0.00000000    0.00026814    0.00009637
     atom    2 type  2   force =     0.00000000   -0.00026817    0.00009639
     atom    3 type  2   force =     0.00000000    0.00026817    0.00009640
     atom    4 type  2   force =     0.00000000   -0.00026817    0.00009639
     atom    5 type  2   force =     0.00000000   -0.00252059    0.00235044
     atom    6 type  2   force =     0.00000000    0.00252058    0.00235044
     atom    7 type  2   force =     0.00000000   -0.00252059    0.00235044
     atom    8 type  2   force =     0.00000000    0.00252059    0.00235045
     atom    9 type  1   force =     0.00000000    0.00069772    0.00024507
     atom   10 type  1   force =     0.00000000   -0.00069773    0.00024506
     atom   11 type  1   force =     0.00000000    0.00069773    0.00024505
     atom   12 type  1   force =     0.00000000   -0.00069773    0.00024506
     atom   13 type  1   force =     0.00000000    0.00099188   -0.00070152
     atom   14 type  1   force =     0.00000000   -0.00099185   -0.00070153
     atom   15 type  1   force =     0.00000000    0.00099185   -0.00070154
     atom   16 type  1   force =     0.00000000   -0.00099185   -0.00070153
     atom   17 type  1   force =     0.00106270   -0.00007049   -0.00099518
     atom   18 type  1   force =    -0.00106270    0.00007049   -0.00099518
     atom   19 type  1   force =     0.00106270    0.00007049   -0.00099518
     atom   20 type  1   force =    -0.00106270   -0.00007049   -0.00099518
     atom   21 type  1   force =     0.00106271   -0.00007049   -0.00099518
     atom   22 type  1   force =    -0.00106270    0.00007049   -0.00099518
     atom   23 type  1   force =     0.00106270    0.00007049   -0.00099518
     atom   24 type  1   force =    -0.00106271   -0.00007049   -0.00099518

     Total force =     0.008540     Total SCF correction =     0.000069


     Computing stress (Cartesian axis) and pressure

          total   stress  (Ry/bohr**3)                   (kbar)     P=        6.28
   0.00003362   0.00000000   0.00000000            4.94        0.00        0.00
   0.00000000   0.00004819  -0.00000000            0.00        7.09       -0.00
   0.00000000  -0.00000000   0.00004623            0.00       -0.00        6.80

     Energy error            =      1.5E-04 Ry
     Gradient error          =      2.5E-03 Ry/Bohr

     number of scf cycles    =   8
     number of bfgs steps    =   7

     energy             old  =    -278.7110546629 Ry
     energy             new  =    -278.7112029062 Ry

     CASE: energy            _new < energy            _old

     new trust radius        =       0.0061670955 bohr
     new conv_thr            =       0.0000000015 Ry


ATOMIC_POSITIONS (crystal)
O                0.0000000000        0.6644859472        0.0600184898
O                0.0000000000        0.3355140531        0.5600184965
O                0.5000000000        0.1644859426        0.0600184965
O                0.5000000000        0.8355140549        0.5600184975
O                0.5000000000        0.8328364645        0.9360467586
O                0.5000000000        0.1671635353        0.4360467556
O                0.0000000000        0.3328364647        0.9360467611
O                0.0000000000        0.6671635362        0.4360467549
H                0.0000000000        0.6628208393        0.1974792648
H                0.0000000000        0.3371791678        0.6974792688
H                0.5000000000        0.1628208306        0.1974792679
H                0.5000000000        0.8371791702        0.6974792698
H                0.0000000000        0.5410447648        0.0189620731
H                0.0000000000        0.4589552355        0.5189620738
H                0.5000000000        0.0410447576        0.0189620790
H                0.5000000000        0.9589552371        0.5189620752
H                0.6790790254        0.7689284063        0.9827467114
H                0.3209209739        0.2310715937        0.4827467071
H                0.6790790261        0.2310715937        0.4827467071
H                0.3209209746        0.7689284063        0.9827467114
H                0.1790790242        0.2689284052        0.9827467143
H                0.8209209752        0.7310715940        0.4827467088
H                0.1790790248        0.7310715940        0.4827467088
H                0.8209209758        0.2689284052        0.9827467143



     Writing config-only to output data dir ./iceIh_vdw/iceIh_vdw.save/ :
     XML data file
     NEW-OLD atomic charge density approx. for the potential

     total cpu time spent up to now is      832.4 secs

     per-process dynamical memory:    60.8 Mb

     Self-consistent Calculation

     iteration #  1     ecut=    90.00 Ry     beta= 0.70
     Davidson diagonalization with overlap
     ethr =  1.00E-06,  avg # of iterations =  3.0

     Threshold (ethr) on eigenvalues was too large:
     Diagonalizing with lowered threshold

     Davidson diagonalization with overlap
     ethr =  5.07E-08,  avg # of iterations =  2.1

     total cpu time spent up to now is      853.0 secs

     total energy              =    -278.71127650 Ry
     estimated scf accuracy    <       0.00003531 Ry

     iteration #  2     ecut=    90.00 Ry     beta= 0.70
     Davidson diagonalization with overlap
     ethr =  5.52E-08,  avg # of iterations =  3.0

     total cpu time spent up to now is      863.4 secs

     total energy              =    -278.71128172 Ry
     estimated scf accuracy    <       0.00000993 Ry

     iteration #  3     ecut=    90.00 Ry     beta= 0.70
     Davidson diagonalization with overlap
     ethr =  1.55E-08,  avg # of iterations =  3.0

     total cpu time spent up to now is      874.2 secs

     total energy              =    -278.71128459 Ry
     estimated scf accuracy    <       0.00000090 Ry

     iteration #  4     ecut=    90.00 Ry     beta= 0.70
     Davidson diagonalization with overlap
     ethr =  1.40E-09,  avg # of iterations =  2.0

     total cpu time spent up to now is      882.1 secs

     total energy              =    -278.71128461 Ry
     estimated scf accuracy    <       0.00000013 Ry

     iteration #  5     ecut=    90.00 Ry     beta= 0.70
     Davidson diagonalization with overlap
     ethr =  2.09E-10,  avg # of iterations =  3.6

     total cpu time spent up to now is      894.0 secs

     total energy              =    -278.71128465 Ry
     estimated scf accuracy    <       0.00000007 Ry

     iteration #  6     ecut=    90.00 Ry     beta= 0.70
     Davidson diagonalization with overlap
     ethr =  1.03E-10,  avg # of iterations =  2.7

     total cpu time spent up to now is      903.4 secs

     End of self-consistent calculation

     Number of k-points >= 100: set verbosity='high' to print the bands.

     highest occupied level (ev):    -3.7498

!    total energy              =    -278.71128467 Ry
     estimated scf accuracy    <          4.0E-10 Ry

     The total energy is the sum of the following terms:
     one-electron contribution =    -235.42318628 Ry
     hartree contribution      =     138.83330452 Ry
     xc contribution           =     -70.63026200 Ry
     ewald contribution        =    -111.49114091 Ry

     convergence has been achieved in   6 iterations

     Forces acting on atoms (cartesian axes, Ry/au):

     atom    1 type  2   force =     0.00000000    0.00010391    0.00029174
     atom    2 type  2   force =     0.00000000   -0.00010388    0.00029170
     atom    3 type  2   force =     0.00000000    0.00010388    0.00029169
     atom    4 type  2   force =     0.00000000   -0.00010389    0.00029170
     atom    5 type  2   force =     0.00000000   -0.00197199    0.00099156
     atom    6 type  2   force =     0.00000000    0.00197199    0.00099155
     atom    7 type  2   force =     0.00000000   -0.00197199    0.00099156
     atom    8 type  2   force =     0.00000000    0.00197199    0.00099155
     atom    9 type  1   force =     0.00000000    0.00076690    0.00017087
     atom   10 type  1   force =     0.00000000   -0.00076690    0.00017089
     atom   11 type  1   force =     0.00000000    0.00076691    0.00017090
     atom   12 type  1   force =     0.00000000   -0.00076691    0.00017089
     atom   13 type  1   force =     0.00000000    0.00048172   -0.00058050
     atom   14 type  1   force =     0.00000000   -0.00048174   -0.00058049
     atom   15 type  1   force =     0.00000000    0.00048175   -0.00058050
     atom   16 type  1   force =     0.00000000   -0.00048174   -0.00058050
     atom   17 type  1   force =     0.00128084   -0.00004540   -0.00043683
     atom   18 type  1   force =    -0.00128084    0.00004540   -0.00043682
     atom   19 type  1   force =     0.00128084    0.00004540   -0.00043682
     atom   20 type  1   force =    -0.00128084   -0.00004540   -0.00043683
     atom   21 type  1   force =     0.00128084   -0.00004539   -0.00043683
     atom   22 type  1   force =    -0.00128084    0.00004540   -0.00043683
     atom   23 type  1   force =     0.00128084    0.00004540   -0.00043683
     atom   24 type  1   force =    -0.00128084   -0.00004539   -0.00043683

     Total force =     0.006268     Total SCF correction =     0.000028


     Computing stress (Cartesian axis) and pressure

          total   stress  (Ry/bohr**3)                   (kbar)     P=        6.54
   0.00003903   0.00000000   0.00000000            5.74        0.00        0.00
   0.00000000   0.00005067   0.00000000            0.00        7.45        0.00
   0.00000000   0.00000000   0.00004366            0.00        0.00        6.42

     Energy error            =      8.2E-05 Ry
     Gradient error          =      2.0E-03 Ry/Bohr

     number of scf cycles    =   9
     number of bfgs steps    =   8

     energy             old  =    -278.7112029062 Ry
     energy             new  =    -278.7112846665 Ry

     CASE: energy            _new < energy            _old

     new trust radius        =       0.0066815904 bohr
     new conv_thr            =       0.0000000010 Ry


ATOMIC_POSITIONS (crystal)
O                0.0000000000        0.6646653883        0.0600262706
O                0.0000000000        0.3353346155        0.5600262721
O                0.5000000000        0.1646653797        0.0600262707
O                0.5000000000        0.8353346166        0.5600262731
O                0.5000000000        0.8326164394        0.9364736439
O                0.5000000000        0.1673835599        0.4364736422
O                0.0000000000        0.3326164386        0.9364736464
O                0.0000000000        0.6673835610        0.4364736406
H                0.0000000000        0.6629307383        0.1975209609
H                0.0000000000        0.3370692677        0.6975209682
H                0.5000000000        0.1629307312        0.1975209684
H                0.5000000000        0.8370692698        0.6975209690
H                0.0000000000        0.5412930935        0.0188072287
H                0.0000000000        0.4587069045        0.5188072300
H                0.5000000000        0.0412930903        0.0188072341
H                0.5000000000        0.9587069063        0.5188072310
H                0.6794136459        0.7686750123        0.9825859526
H                0.3205863546        0.2313249877        0.4825859491
H                0.6794136454        0.2313249877        0.4825859491
H                0.3205863541        0.7686750123        0.9825859526
H                0.1794136447        0.2686750117        0.9825859556
H                0.8205863547        0.7313249880        0.4825859507
H                0.1794136453        0.7313249880        0.4825859507
H                0.8205863553        0.2686750117        0.9825859556



     Writing config-only to output data dir ./iceIh_vdw/iceIh_vdw.save/ :
     XML data file
     NEW-OLD atomic charge density approx. for the potential

     total cpu time spent up to now is      913.1 secs

     per-process dynamical memory:    60.8 Mb

     Self-consistent Calculation

     iteration #  1     ecut=    90.00 Ry     beta= 0.70
     Davidson diagonalization with overlap
     ethr =  1.00E-06,  avg # of iterations =  3.0

     Threshold (ethr) on eigenvalues was too large:
     Diagonalizing with lowered threshold

     Davidson diagonalization with overlap
     ethr =  5.57E-08,  avg # of iterations =  2.0

     total cpu time spent up to now is      933.3 secs

     total energy              =    -278.71134063 Ry
     estimated scf accuracy    <       0.00003788 Ry

     iteration #  2     ecut=    90.00 Ry     beta= 0.70
     Davidson diagonalization with overlap
     ethr =  5.92E-08,  avg # of iterations =  3.0

     total cpu time spent up to now is      944.4 secs

     total energy              =    -278.71134629 Ry
     estimated scf accuracy    <       0.00001561 Ry

     iteration #  3     ecut=    90.00 Ry     beta= 0.70
     Davidson diagonalization with overlap
     ethr =  2.44E-08,  avg # of iterations =  3.0

     total cpu time spent up to now is      955.3 secs

     total energy              =    -278.71135054 Ry
     estimated scf accuracy    <       0.00000080 Ry

     iteration #  4     ecut=    90.00 Ry     beta= 0.70
     Davidson diagonalization with overlap
     ethr =  1.25E-09,  avg # of iterations =  2.0

     total cpu time spent up to now is      963.8 secs

     total energy              =    -278.71135054 Ry
     estimated scf accuracy    <       0.00000022 Ry

     iteration #  5     ecut=    90.00 Ry     beta= 0.70
     Davidson diagonalization with overlap
     ethr =  3.37E-10,  avg # of iterations =  3.0

     total cpu time spent up to now is      975.1 secs

     total energy              =    -278.71135061 Ry
     estimated scf accuracy    <       0.00000004 Ry

     iteration #  6     ecut=    90.00 Ry     beta= 0.70
     Davidson diagonalization with overlap
     ethr =  6.30E-11,  avg # of iterations =  2.0

     total cpu time spent up to now is      983.8 secs

     total energy              =    -278.71135061 Ry
     estimated scf accuracy    <          1.5E-09 Ry

     iteration #  7     ecut=    90.00 Ry     beta= 0.70
     Davidson diagonalization with overlap
     ethr =  2.40E-12,  avg # of iterations =  5.0

     total cpu time spent up to now is      997.9 secs

     End of self-consistent calculation

     Number of k-points >= 100: set verbosity='high' to print the bands.

     highest occupied level (ev):    -3.7528

!    total energy              =    -278.71135061 Ry
     estimated scf accuracy    <          6.7E-10 Ry

     The total energy is the sum of the following terms:
     one-electron contribution =    -235.42483763 Ry
     hartree contribution      =     138.83528964 Ry
     xc contribution           =     -70.63048452 Ry
     ewald contribution        =    -111.49131811 Ry

     convergence has been achieved in   7 iterations

     Forces acting on atoms (cartesian axes, Ry/au):

     atom    1 type  2   force =     0.00000000   -0.00001695    0.00049236
     atom    2 type  2   force =     0.00000000    0.00001689    0.00049244
     atom    3 type  2   force =     0.00000000   -0.00001687    0.00049246
     atom    4 type  2   force =     0.00000000    0.00001690    0.00049243
     atom    5 type  2   force =     0.00000000   -0.00085219   -0.00053223
     atom    6 type  2   force =     0.00000000    0.00085219   -0.00053224
     atom    7 type  2   force =     0.00000000   -0.00085218   -0.00053223
     atom    8 type  2   force =     0.00000000    0.00085220   -0.00053223
     atom    9 type  1   force =     0.00000000    0.00063986   -0.00010523
     atom   10 type  1   force =     0.00000000   -0.00063987   -0.00010529
     atom   11 type  1   force =     0.00000000    0.00063986   -0.00010531
     atom   12 type  1   force =     0.00000000   -0.00063987   -0.00010529
     atom   13 type  1   force =     0.00000000    0.00007051   -0.00026005
     atom   14 type  1   force =     0.00000000   -0.00007046   -0.00026007
     atom   15 type  1   force =     0.00000000    0.00007045   -0.00026008
     atom   16 type  1   force =     0.00000000   -0.00007047   -0.00026007
     atom   17 type  1   force =     0.00073503   -0.00029268    0.00020258
     atom   18 type  1   force =    -0.00073503    0.00029269    0.00020258
     atom   19 type  1   force =     0.00073503    0.00029269    0.00020258
     atom   20 type  1   force =    -0.00073503   -0.00029268    0.00020258
     atom   21 type  1   force =     0.00073504   -0.00029269    0.00020258
     atom   22 type  1   force =    -0.00073503    0.00029268    0.00020258
     atom   23 type  1   force =     0.00073503    0.00029268    0.00020258
     atom   24 type  1   force =    -0.00073504   -0.00029269    0.00020258

     Total force =     0.003510     Total SCF correction =     0.000019


     Computing stress (Cartesian axis) and pressure

          total   stress  (Ry/bohr**3)                   (kbar)     P=        6.45
   0.00004010   0.00000000   0.00000000            5.90        0.00        0.00
   0.00000000   0.00005199  -0.00000000            0.00        7.65       -0.00
   0.00000000  -0.00000000   0.00003947            0.00       -0.00        5.81

     Energy error            =      6.6E-05 Ry
     Gradient error          =      8.5E-04 Ry/Bohr

     bfgs converged in  10 scf cycles and   9 bfgs steps
     (criteria: energy <  1.0E-04 Ry, force <  1.0E-03 Ry/Bohr)

     End of BFGS Geometry Optimization

     Final energy             =    -278.7113506133 Ry

     File ./iceIh_vdw/iceIh_vdw.bfgs deleted, as requested
Begin final coordinates

ATOMIC_POSITIONS (crystal)
O                0.0000000000        0.6646653883        0.0600262706
O                0.0000000000        0.3353346155        0.5600262721
O                0.5000000000        0.1646653797        0.0600262707
O                0.5000000000        0.8353346166        0.5600262731
O                0.5000000000        0.8326164394        0.9364736439
O                0.5000000000        0.1673835599        0.4364736422
O                0.0000000000        0.3326164386        0.9364736464
O                0.0000000000        0.6673835610        0.4364736406
H                0.0000000000        0.6629307383        0.1975209609
H                0.0000000000        0.3370692677        0.6975209682
H                0.5000000000        0.1629307312        0.1975209684
H                0.5000000000        0.8370692698        0.6975209690
H                0.0000000000        0.5412930935        0.0188072287
H                0.0000000000        0.4587069045        0.5188072300
H                0.5000000000        0.0412930903        0.0188072341
H                0.5000000000        0.9587069063        0.5188072310
H                0.6794136459        0.7686750123        0.9825859526
H                0.3205863546        0.2313249877        0.4825859491
H                0.6794136454        0.2313249877        0.4825859491
H                0.3205863541        0.7686750123        0.9825859526
H                0.1794136447        0.2686750117        0.9825859556
H                0.8205863547        0.7313249880        0.4825859507
H                0.1794136453        0.7313249880        0.4825859507
H                0.8205863553        0.2686750117        0.9825859556
End final coordinates



     Writing all to output data dir ./iceIh_vdw/iceIh_vdw.save/ :
     XML data file, charge density, pseudopotentials, collected wavefunctions

     init_run     :      6.10s CPU      6.26s WALL (       1 calls)
     electrons    :    889.53s CPU    904.66s WALL (      10 calls)
     update_pot   :      0.61s CPU      0.68s WALL (       9 calls)
     forces       :      5.70s CPU      5.73s WALL (      10 calls)
     stress       :     87.37s CPU     87.51s WALL (      10 calls)

     Called by init_run:
     wfcinit      :      4.11s CPU      4.20s WALL (       1 calls)
     potinit      :      1.58s CPU      1.63s WALL (       1 calls)
     hinit0       :      0.33s CPU      0.34s WALL (       1 calls)

     Called by electrons:
     c_bands      :    790.08s CPU    802.21s WALL (      81 calls)
     sum_band     :     93.95s CPU     94.87s WALL (      81 calls)
     v_of_rho     :      7.09s CPU      7.78s WALL (      87 calls)
     newd         :      0.21s CPU      0.24s WALL (      87 calls)
     mix_rho      :      0.16s CPU      0.16s WALL (      81 calls)
     vdW_kernel   :      1.50s CPU      1.52s WALL (       1 calls)

     Called by c_bands:
     init_us_2    :     11.04s CPU     11.44s WALL (   21045 calls)
     cegterg      :    758.52s CPU    765.15s WALL (    9315 calls)

     Called by *egterg:
     cdiaghg      :     63.25s CPU     63.52s WALL (   36270 calls)
     h_psi        :    574.21s CPU    580.12s WALL (   37880 calls)
     s_psi        :     22.90s CPU     23.04s WALL (   37880 calls)
     g_psi        :      1.99s CPU      2.00s WALL (   28450 calls)

     Called by h_psi:
     h_psi:calbec :     38.19s CPU     38.51s WALL (   37880 calls)
     vloc_psi     :    508.33s CPU    513.63s WALL (   37880 calls)
     add_vuspsi   :     23.40s CPU     23.59s WALL (   37880 calls)

     General routines
     calbec       :     51.22s CPU     51.69s WALL (   52945 calls)
     fft          :      3.36s CPU      3.44s WALL (    5840 calls)
     ffts         :      0.05s CPU      0.05s WALL (      81 calls)
     fftw         :    532.67s CPU    537.99s WALL ( 2226354 calls)

     Parallel routines

     PWSCF        :  16m33.36s CPU  16m59.51s WALL


   This run was terminated on:  23:18:53   1Apr2026            

=------------------------------------------------------------------------------=
   JOB DONE.
=------------------------------------------------------------------------------=
