
     Program PWSCF v.7.3.1 starts on 26Mar2026 at 17:10:11 

     This program is part of the open-source Quantum ESPRESSO suite
     for quantum simulation of materials; please cite
         "P. Giannozzi et al., J. Phys.:Condens. Matter 21 395502 (2009);
         "P. Giannozzi et al., J. Phys.:Condens. Matter 29 465901 (2017);
         "P. Giannozzi et al., J. Chem. Phys. 152 154105 (2020);
          URL http://www.quantum-espresso.org", 
     in publications or presentations arising from this work. More details at
     http://www.quantum-espresso.org/quote

     Parallel version (MPI), running on   128 processors

     MPI processes distributed on     1 nodes
     236895 MiB available memory on the printing compute node when the environment starts

     Waiting for input...
     Reading input from standard input

     Current dimensions of program PWSCF are:
     Max number of different atomic species (ntypx) = 10
     Max number of k-points (npk) =  40000
     Max angular momentum in pseudopotentials (lmaxx) =  4

     IMPORTANT: XC functional enforced from input :
     Exchange-correlation= VDW-DF2
                           (   1   4  13   0   2   0   0)
     Any further DFT definition will be discarded
     Please, verify this is what you really want

     Found identity + ( -0.5000 -0.5000 -0.0000) symmetry
     This is a supercell, fractional translations are disabled

     K-points division:     npool     =       4
     R & G space division:  proc/nbgrp/npool/nimage =      32
     Subspace diagonalization in iterative solution of the eigenvalue problem:
     a serial algorithm will be used


     Parallelization info
     --------------------
     sticks:   dense  smooth     PW     G-vecs:    dense   smooth      PW
     Min         111     111     30                 6146     6146     890
     Max         113     113     31                 6149     6149     895
     Sum        3559    3559    981               196705   196705   28543

     Using Slab Decomposition



     bravais-lattice index     =            8
     lattice parameter (alat)  =       8.4565  a.u.
     unit-cell volume          =    1705.0214 (a.u.)^3
     number of atoms/cell      =           24
     number of atomic types    =            2
     number of electrons       =        64.00
     number of Kohn-Sham states=           32
     kinetic-energy cutoff     =      90.0000  Ry
     charge density cutoff     =     360.0000  Ry
     scf convergence threshold =      1.0E-07
     mixing beta               =       0.7000
     number of iterations used =            8  plain     mixing
     Exchange-correlation= VDW-DF2
                           (   1   4  13   0   2   0   0)

     celldm(1)=   8.456501  celldm(2)=   1.732119  celldm(3)=   1.627721
     celldm(4)=   0.000000  celldm(5)=   0.000000  celldm(6)=   0.000000

     crystal axes: (cart. coord. in units of alat)
               a(1) = (   1.000000   0.000000   0.000000 )  
               a(2) = (   0.000000   1.732119   0.000000 )  
               a(3) = (   0.000000   0.000000   1.627721 )  

     reciprocal axes: (cart. coord. in units 2 pi/alat)
               b(1) = (  1.000000  0.000000  0.000000 )  
               b(2) = (  0.000000  0.577328  0.000000 )  
               b(3) = (  0.000000  0.000000  0.614356 )  


     PseudoPot. # 1 for H  read from file:
     ./H.pbe-van_ak.UPF
     MD5 check sum: 077eb6d537518a38cb46c6de387227b7
     Pseudo is Ultrasoft, Zval =  1.0
     Generated by new atomic code, or converted to UPF format
     Using radial grid of  615 points,  1 beta functions with: 
                l(1) =   0
     Q(r) pseudized with  8 coefficients,  rinner =    0.800

     PseudoPot. # 2 for O  read from file:
     ./O.pbe-van_ak.UPF
     MD5 check sum: 78c19812648e8988a0fe644b0f25305e
     Pseudo is Ultrasoft, Zval =  6.0
     Generated by new atomic code, or converted to UPF format
     Using radial grid of  737 points,  4 beta functions with: 
                l(1) =   0
                l(2) =   0
                l(3) =   1
                l(4) =   1
     Q(r) pseudized with  8 coefficients,  rinner =    0.800   0.800   0.800


     atomic species   valence    mass     pseudopotential
     H                 1.00     1.00800     H ( 1.00)
     O                 6.00    16.00000     O ( 1.00)

      2 Sym. Ops. (no inversion) found



   Cartesian axes

     site n.     atom                  positions (alat units)
         1        O      tau(   1) = (   0.0000000   1.1505053   0.0983911  )
         2        O      tau(   2) = (   0.0000000   0.5816137   0.9122516  )
         3        O      tau(   3) = (   0.5000000   0.2844458   0.0983911  )
         4        O      tau(   4) = (   0.5000000   1.4476733   0.9122516  )
         5        O      tau(   5) = (   0.5000000   1.4413210   1.5245781  )
         6        O      tau(   6) = (   0.5000000   0.2907980   0.7107175  )
         7        O      tau(   7) = (   0.0000000   0.5752615   1.5245780  )
         8        O      tau(   8) = (   0.0000000   1.1568575   0.7107175  )
         9        H      tau(   9) = (   0.0000000   1.1476935   0.3199225  )
        10        H      tau(  10) = (   0.0000000   0.5844255   1.1337830  )
        11        H      tau(  11) = (   0.5000000   0.2816340   0.3199225  )
        12        H      tau(  12) = (   0.5000000   1.4504851   1.1337830  )
        13        H      tau(  13) = (   0.0000000   0.9389577   0.0320281  )
        14        H      tau(  14) = (   0.0000000   0.7931613   0.8458886  )
        15        H      tau(  15) = (   0.5000000   0.0728982   0.0320281  )
        16        H      tau(  16) = (   0.5000000   1.6592209   0.8458886  )
        17        H      tau(  17) = (   0.6777387   1.3318248   1.5989889  )
        18        H      tau(  18) = (   0.3222613   0.4002942   0.7851284  )
        19        H      tau(  19) = (   0.6777387   0.4002942   0.7851284  )
        20        H      tau(  20) = (   0.3222613   1.3318248   1.5989889  )
        21        H      tau(  21) = (   0.1777387   0.4657653   1.5989889  )
        22        H      tau(  22) = (   0.8222613   1.2663538   0.7851284  )
        23        H      tau(  23) = (   0.1777387   1.2663538   0.7851284  )
        24        H      tau(  24) = (   0.8222613   0.4657653   1.5989889  )

     number of k points=   460

     Number of k-points >= 100: set verbosity='high' to print them.

     Dense  grid:   196705 G-vectors     FFT dimensions: (  54,  90,  90)

     Estimated max dynamical RAM per process >      51.53 MB

     Estimated total dynamical RAM >       6.30 GB

     Initial potential from superposition of free atoms

     starting charge      63.9998, renormalised to      64.0000


     %%%%%%%%%%%%%%%%%%%%%%%%%%%%%%%%%%%%%%%%%%%%%%%%%%%%%%%%%%%%%%%%%%%%%%%%
     %                                                                      %
     % You are using vdW-DF, which was implemented by the Thonhauser group. %
     % Please cite the following two papers that made this development      %
     % possible and the two reviews that describe the various versions:     %
     %                                                                      %
     %   T. Thonhauser et al., PRL 115, 136402 (2015).                      %
     %   T. Thonhauser et al., PRB 76, 125112 (2007).                       %
     %   K. Berland et al., Rep. Prog. Phys. 78, 066501 (2015).             %
     %   D.C. Langreth et al., J. Phys.: Condens. Matter 21, 084203 (2009). %
     %                                                                      %
     % If you are calculating stress with vdW-DF, please also cite:         %
     %                                                                      %
     %   R. Sabatini et al., J. Phys.: Condens. Matter 24, 424209 (2012).   %
     %                                                                      %
     %%%%%%%%%%%%%%%%%%%%%%%%%%%%%%%%%%%%%%%%%%%%%%%%%%%%%%%%%%%%%%%%%%%%%%%%

     %%%%%%%%%%%%%%%%%%%%%%%%%%%%%%%%%%%%%%%%%%%%%%%%%%%%%%%%%%%%%%%%%%%%%%%%
     %                                                                      %
     %  vdW-DF NEWS:                                                        %
     %                                                                      %
     %  * vdW-DF3 is now available. DOI: 10.1021/acs.jctc.0c00471           %
     %    use with input_dft = 'vdW-DF3-opt1' or 'vdW-DF3-opt2'             %
     %                                                                      %
     %  * Unscreened and range-separated hybrid vdW-DF-cx functionals       %
     %    DOI: 10.1063/1.4986522 and 10.1088/1361-648X/ac2ad2               %
     %    use with input_dft = 'vdW-DF-cx0'    and 'vdW-DF-ahcx'            %
     %  * Unscreened and range-separated hybrid vdW-DF2-b86r functionals    %
     %    DOI: 10.1063/1.4986522 and DOI: 10.1103/PhysRevX.12.041003        %
     %    use with input_dft = 'vdW-DF2-br0' and 'vdW-DF2-ahbr'             %
     %                                                                      %
     %%%%%%%%%%%%%%%%%%%%%%%%%%%%%%%%%%%%%%%%%%%%%%%%%%%%%%%%%%%%%%%%%%%%%%%%


     Starting wfcs are   48 randomized atomic wfcs

     total cpu time spent up to now is        6.6 secs

     per-process dynamical memory:    58.8 Mb

     Self-consistent Calculation

     iteration #  1     ecut=    90.00 Ry     beta= 0.70
     Davidson diagonalization with overlap
     ethr =  1.00E-02,  avg # of iterations =  2.0

     total cpu time spent up to now is       15.9 secs

     total energy              =    -277.29397570 Ry
     estimated scf accuracy    <       3.20174950 Ry

     iteration #  2     ecut=    90.00 Ry     beta= 0.70
     Davidson diagonalization with overlap
     ethr =  5.00E-03,  avg # of iterations =  3.0

     total cpu time spent up to now is       28.2 secs

     total energy              =    -278.32768086 Ry
     estimated scf accuracy    <       2.23106172 Ry

     iteration #  3     ecut=    90.00 Ry     beta= 0.70
     Davidson diagonalization with overlap
     ethr =  3.49E-03,  avg # of iterations =  2.0

     total cpu time spent up to now is       37.6 secs

     total energy              =    -278.63566345 Ry
     estimated scf accuracy    <       0.08948509 Ry

     iteration #  4     ecut=    90.00 Ry     beta= 0.70
     Davidson diagonalization with overlap
     ethr =  1.40E-04,  avg # of iterations =  4.0

     total cpu time spent up to now is       51.8 secs

     total energy              =    -278.70531138 Ry
     estimated scf accuracy    <       0.11630851 Ry

     iteration #  5     ecut=    90.00 Ry     beta= 0.70
     Davidson diagonalization with overlap
     ethr =  1.40E-04,  avg # of iterations =  2.0

     total cpu time spent up to now is       60.0 secs

     total energy              =    -278.70620606 Ry
     estimated scf accuracy    <       0.01688061 Ry

     iteration #  6     ecut=    90.00 Ry     beta= 0.70
     Davidson diagonalization with overlap
     ethr =  2.64E-05,  avg # of iterations =  2.0

     total cpu time spent up to now is       70.0 secs

     total energy              =    -278.71117460 Ry
     estimated scf accuracy    <       0.00013712 Ry

     iteration #  7     ecut=    90.00 Ry     beta= 0.70
     Davidson diagonalization with overlap
     ethr =  2.14E-07,  avg # of iterations =  6.0

     total cpu time spent up to now is       85.8 secs

     total energy              =    -278.71204185 Ry
     estimated scf accuracy    <       0.00188115 Ry

     iteration #  8     ecut=    90.00 Ry     beta= 0.70
     Davidson diagonalization with overlap
     ethr =  2.14E-07,  avg # of iterations =  1.6

     total cpu time spent up to now is       93.5 secs

     total energy              =    -278.71111095 Ry
     estimated scf accuracy    <       0.00239373 Ry

     iteration #  9     ecut=    90.00 Ry     beta= 0.70
     Davidson diagonalization with overlap
     ethr =  2.14E-07,  avg # of iterations =  4.0

     total cpu time spent up to now is      108.1 secs

     total energy              =    -278.71137117 Ry
     estimated scf accuracy    <       0.00019642 Ry

     iteration # 10     ecut=    90.00 Ry     beta= 0.70
     Davidson diagonalization with overlap
     ethr =  2.14E-07,  avg # of iterations =  1.0

     total cpu time spent up to now is      114.9 secs

     total energy              =    -278.71129020 Ry
     estimated scf accuracy    <       0.00019707 Ry

     iteration # 11     ecut=    90.00 Ry     beta= 0.70
     Davidson diagonalization with overlap
     ethr =  2.14E-07,  avg # of iterations =  2.0

     total cpu time spent up to now is      124.6 secs

     total energy              =    -278.71131260 Ry
     estimated scf accuracy    <       0.00001220 Ry

     iteration # 12     ecut=    90.00 Ry     beta= 0.70
     Davidson diagonalization with overlap
     ethr =  1.91E-08,  avg # of iterations =  3.7

     total cpu time spent up to now is      137.5 secs

     total energy              =    -278.71132764 Ry
     estimated scf accuracy    <       0.00000902 Ry

     iteration # 13     ecut=    90.00 Ry     beta= 0.70
     Davidson diagonalization with overlap
     ethr =  1.41E-08,  avg # of iterations =  2.0

     total cpu time spent up to now is      146.7 secs

     total energy              =    -278.71132662 Ry
     estimated scf accuracy    <       0.00002788 Ry

     iteration # 14     ecut=    90.00 Ry     beta= 0.70
     Davidson diagonalization with overlap
     ethr =  1.41E-08,  avg # of iterations =  1.0

     total cpu time spent up to now is      153.6 secs

     total energy              =    -278.71132669 Ry
     estimated scf accuracy    <       0.00002136 Ry

     iteration # 15     ecut=    90.00 Ry     beta= 0.70
     Davidson diagonalization with overlap
     ethr =  1.41E-08,  avg # of iterations =  1.0

     total cpu time spent up to now is      160.5 secs

     total energy              =    -278.71132131 Ry
     estimated scf accuracy    <       0.00002114 Ry

     iteration # 16     ecut=    90.00 Ry     beta= 0.70
     Davidson diagonalization with overlap
     ethr =  1.41E-08,  avg # of iterations =  2.0

     total cpu time spent up to now is      168.3 secs

     total energy              =    -278.71132382 Ry
     estimated scf accuracy    <       0.00000741 Ry

     iteration # 17     ecut=    90.00 Ry     beta= 0.70
     Davidson diagonalization with overlap
     ethr =  1.16E-08,  avg # of iterations =  1.0

     total cpu time spent up to now is      175.2 secs

     total energy              =    -278.71132427 Ry
     estimated scf accuracy    <       0.00001129 Ry

     iteration # 18     ecut=    90.00 Ry     beta= 0.70
     Davidson diagonalization with overlap
     ethr =  1.16E-08,  avg # of iterations =  1.0

     total cpu time spent up to now is      182.1 secs

     total energy              =    -278.71131750 Ry
     estimated scf accuracy    <       0.00001196 Ry

     iteration # 19     ecut=    90.00 Ry     beta= 0.70
     Davidson diagonalization with overlap
     ethr =  1.16E-08,  avg # of iterations =  3.0

     total cpu time spent up to now is      194.1 secs

     total energy              =    -278.71132076 Ry
     estimated scf accuracy    <       0.00000026 Ry

     iteration # 20     ecut=    90.00 Ry     beta= 0.70
     Davidson diagonalization with overlap
     ethr =  4.10E-10,  avg # of iterations =  3.0

     total cpu time spent up to now is      204.3 secs

     total energy              =    -278.71132080 Ry
     estimated scf accuracy    <       0.00000028 Ry

     iteration # 21     ecut=    90.00 Ry     beta= 0.70
     Davidson diagonalization with overlap
     ethr =  4.10E-10,  avg # of iterations =  1.0

     total cpu time spent up to now is      211.3 secs

     total energy              =    -278.71132074 Ry
     estimated scf accuracy    <       0.00000012 Ry

     iteration # 22     ecut=    90.00 Ry     beta= 0.70
     Davidson diagonalization with overlap
     ethr =  1.92E-10,  avg # of iterations =  2.0

     total cpu time spent up to now is      221.1 secs

     End of self-consistent calculation

     Number of k-points >= 100: set verbosity='high' to print the bands.

     highest occupied level (ev):    -3.8198

!    total energy              =    -278.71132078 Ry
     estimated scf accuracy    <          7.3E-10 Ry

     The total energy is the sum of the following terms:
     one-electron contribution =    -237.21557982 Ry
     hartree contribution      =     139.59146718 Ry
     xc contribution           =     -70.69201948 Ry
     ewald contribution        =    -110.39518866 Ry

     convergence has been achieved in  22 iterations

     Forces acting on atoms (cartesian axes, Ry/au):

     atom    1 type  2   force =     0.00000000    0.00808220   -0.00591713
     atom    2 type  2   force =     0.00000000   -0.00808225   -0.00591700
     atom    3 type  2   force =     0.00000000    0.00808204   -0.00591696
     atom    4 type  2   force =     0.00000000   -0.00808211   -0.00591699
     atom    5 type  2   force =     0.00000000    0.00753717   -0.00598355
     atom    6 type  2   force =     0.00000000   -0.00753721   -0.00598356
     atom    7 type  2   force =     0.00000000    0.00753700   -0.00598353
     atom    8 type  2   force =     0.00000000   -0.00753691   -0.00598346
     atom    9 type  1   force =     0.00000000    0.00083361    0.00918993
     atom   10 type  1   force =     0.00000000   -0.00083360    0.00918987
     atom   11 type  1   force =     0.00000000    0.00083363    0.00919005
     atom   12 type  1   force =     0.00000000   -0.00083363    0.00919002
     atom   13 type  1   force =     0.00000000   -0.00830672   -0.00322520
     atom   14 type  1   force =     0.00000000    0.00830680   -0.00322522
     atom   15 type  1   force =     0.00000000   -0.00830685   -0.00322528
     atom   16 type  1   force =     0.00000000    0.00830684   -0.00322528
     atom   17 type  1   force =     0.00755821   -0.00443387    0.00296792
     atom   18 type  1   force =    -0.00755819    0.00443387    0.00296792
     atom   19 type  1   force =     0.00755819    0.00443387    0.00296792
     atom   20 type  1   force =    -0.00755821   -0.00443387    0.00296792
     atom   21 type  1   force =     0.00755823   -0.00443390    0.00296791
     atom   22 type  1   force =    -0.00755823    0.00443389    0.00296791
     atom   23 type  1   force =     0.00755823    0.00443389    0.00296791
     atom   24 type  1   force =    -0.00755823   -0.00443390    0.00296791

     Total force =     0.045986     Total SCF correction =     0.000037


     Computing stress (Cartesian axis) and pressure

          total   stress  (Ry/bohr**3)                   (kbar)     P=       13.41
   0.00008377   0.00000000   0.00000000           12.32        0.00        0.00
   0.00000000   0.00010050   0.00000000            0.00       14.78        0.00
   0.00000000   0.00000000   0.00008923            0.00        0.00       13.13


     Writing all to output data dir ./iceIh/iceIh.save/ :
     XML data file, charge density, pseudopotentials, collected wavefunctions

     init_run     :      6.13s CPU      6.28s WALL (       1 calls)
     electrons    :    211.28s CPU    214.62s WALL (       1 calls)
     forces       :      0.59s CPU      0.60s WALL (       1 calls)
     stress       :      8.81s CPU      8.84s WALL (       1 calls)

     Called by init_run:
     wfcinit      :      4.14s CPU      4.21s WALL (       1 calls)
     potinit      :      1.58s CPU      1.63s WALL (       1 calls)
     hinit0       :      0.33s CPU      0.33s WALL (       1 calls)

     Called by electrons:
     c_bands      :    184.46s CPU    187.32s WALL (      22 calls)
     sum_band     :     25.17s CPU     25.45s WALL (      22 calls)
     v_of_rho     :      3.03s CPU      3.20s WALL (      23 calls)
     newd         :      0.07s CPU      0.08s WALL (      23 calls)
     mix_rho      :      0.07s CPU      0.07s WALL (      22 calls)
     vdW_kernel   :      1.50s CPU      1.52s WALL (       1 calls)

     Called by c_bands:
     init_us_2    :      2.98s CPU      3.09s WALL (    5405 calls)
     cegterg      :    177.86s CPU    179.66s WALL (    2530 calls)

     Called by *egterg:
     cdiaghg      :     14.05s CPU     14.11s WALL (    8364 calls)
     h_psi        :    139.58s CPU    141.26s WALL (    8479 calls)
     s_psi        :      5.38s CPU      5.42s WALL (    8479 calls)
     g_psi        :      0.48s CPU      0.48s WALL (    5834 calls)

     Called by h_psi:
     h_psi:calbec :      8.73s CPU      8.82s WALL (    8479 calls)
     vloc_psi     :    124.14s CPU    125.64s WALL (    8479 calls)
     add_vuspsi   :      5.66s CPU      5.71s WALL (    8479 calls)

     General routines
     calbec       :     11.36s CPU     11.48s WALL (   11584 calls)
     fft          :      1.09s CPU      1.12s WALL (    1455 calls)
     ffts         :      0.01s CPU      0.01s WALL (      22 calls)
     fftw         :    131.28s CPU    132.80s WALL (  552862 calls)

     Parallel routines

     PWSCF        :   3m49.41s CPU   3m58.02s WALL


   This run was terminated on:  17:14: 9  26Mar2026            

=------------------------------------------------------------------------------=
   JOB DONE.
=------------------------------------------------------------------------------=
