
     Program PWSCF v.7.3.1 starts on  1Apr2026 at 23:37: 2 

     This program is part of the open-source Quantum ESPRESSO suite
     for quantum simulation of materials; please cite
         "P. Giannozzi et al., J. Phys.:Condens. Matter 21 395502 (2009);
         "P. Giannozzi et al., J. Phys.:Condens. Matter 29 465901 (2017);
         "P. Giannozzi et al., J. Chem. Phys. 152 154105 (2020);
          URL http://www.quantum-espresso.org", 
     in publications or presentations arising from this work. More details at
     http://www.quantum-espresso.org/quote

     Parallel version (MPI), running on   128 processors

     MPI processes distributed on     1 nodes
     236802 MiB available memory on the printing compute node when the environment starts

     Waiting for input...
     Reading input from standard input

     Current dimensions of program PWSCF are:
     Max number of different atomic species (ntypx) = 10
     Max number of k-points (npk) =  40000
     Max angular momentum in pseudopotentials (lmaxx) =  4

     IMPORTANT: XC functional enforced from input :
     Exchange-correlation= VDW-DF2
                           (   1   4  13   0   2   0   0)
     Any further DFT definition will be discarded
     Please, verify this is what you really want

     Found identity + ( -0.5000 -0.5000  0.0000) symmetry
     This is a supercell, fractional translations are disabled

     K-points division:     npool     =       4
     R & G space division:  proc/nbgrp/npool/nimage =      32
     Subspace diagonalization in iterative solution of the eigenvalue problem:
     a serial algorithm will be used


     Parallelization info
     --------------------
     sticks:   dense  smooth     PW     G-vecs:    dense   smooth      PW
     Min         111     111     30                 6201     6201     896
     Max         112     112     31                 6208     6208     903
     Sum        3575    3575    985               198569   198569   28811

     Using Slab Decomposition



     bravais-lattice index     =            8
     lattice parameter (alat)  =       8.4820  a.u.
     unit-cell volume          =    1720.5059 (a.u.)^3
     number of atoms/cell      =           24
     number of atomic types    =            2
     number of electrons       =        64.00
     number of Kohn-Sham states=           32
     kinetic-energy cutoff     =      90.0000  Ry
     charge density cutoff     =     360.0000  Ry
     scf convergence threshold =      1.0E-07
     mixing beta               =       0.7000
     number of iterations used =            8  plain     mixing
     energy convergence thresh.=      1.0E-04
     force convergence thresh. =      1.0E-03
     Exchange-correlation= VDW-DF2
                           (   1   4  13   0   2   0   0)
     nstep                     =           50


     celldm(1)=   8.482024  celldm(2)=   1.732119  celldm(3)=   1.627721
     celldm(4)=   0.000000  celldm(5)=   0.000000  celldm(6)=   0.000000

     crystal axes: (cart. coord. in units of alat)
               a(1) = (   1.000000   0.000000   0.000000 )  
               a(2) = (   0.000000   1.732119   0.000000 )  
               a(3) = (   0.000000   0.000000   1.627721 )  

     reciprocal axes: (cart. coord. in units 2 pi/alat)
               b(1) = (  1.000000  0.000000  0.000000 )  
               b(2) = (  0.000000  0.577328  0.000000 )  
               b(3) = (  0.000000  0.000000  0.614356 )  


     PseudoPot. # 1 for H  read from file:
     ./H.pbe-van_ak.UPF
     MD5 check sum: 077eb6d537518a38cb46c6de387227b7
     Pseudo is Ultrasoft, Zval =  1.0
     Generated by new atomic code, or converted to UPF format
     Using radial grid of  615 points,  1 beta functions with: 
                l(1) =   0
     Q(r) pseudized with  8 coefficients,  rinner =    0.800

     PseudoPot. # 2 for O  read from file:
     ./O.pbe-van_ak.UPF
     MD5 check sum: 78c19812648e8988a0fe644b0f25305e
     Pseudo is Ultrasoft, Zval =  6.0
     Generated by new atomic code, or converted to UPF format
     Using radial grid of  737 points,  4 beta functions with: 
                l(1) =   0
                l(2) =   0
                l(3) =   1
                l(4) =   1
     Q(r) pseudized with  8 coefficients,  rinner =    0.800   0.800   0.800


     atomic species   valence    mass     pseudopotential
     H                 1.00     1.00800     H ( 1.00)
     O                 6.00    16.00000     O ( 1.00)

      2 Sym. Ops. (no inversion) found



   Cartesian axes

     site n.     atom                  positions (alat units)
         1        O      tau(   1) = (   0.0000000   1.1515127   0.1027092  )
         2        O      tau(   2) = (   0.0000000   0.5806063   0.9165697  )
         3        O      tau(   3) = (   0.5000000   0.2854532   0.1027092  )
         4        O      tau(   4) = (   0.5000000   1.4466659   0.9165697  )
         5        O      tau(   5) = (   0.5000000   1.4298643   1.5250118  )
         6        O      tau(   6) = (   0.5000000   0.3022548   0.7111513  )
         7        O      tau(   7) = (   0.0000000   0.5638048   1.5250118  )
         8        O      tau(   8) = (   0.0000000   1.1683143   0.7111513  )
         9        H      tau(   9) = (   0.0000000   1.1494343   0.3195216  )
        10        H      tau(  10) = (   0.0000000   0.5826848   1.1333822  )
        11        H      tau(  11) = (   0.5000000   0.2833747   0.3195216  )
        12        H      tau(  12) = (   0.5000000   1.4487443   1.1333822  )
        13        H      tau(  13) = (   0.0000000   0.9289355   0.0297873  )
        14        H      tau(  14) = (   0.0000000   0.8031836   0.8436478  )
        15        H      tau(  15) = (   0.5000000   0.0628759   0.0297873  )
        16        H      tau(  16) = (   0.5000000   1.6692431   0.8436478  )
        17        H      tau(  17) = (   0.6766000   1.3420459   1.5979337  )
        18        H      tau(  18) = (   0.3234000   0.3900732   0.7840732  )
        19        H      tau(  19) = (   0.6766000   0.3900732   0.7840732  )
        20        H      tau(  20) = (   0.3234000   1.3420459   1.5979337  )
        21        H      tau(  21) = (   0.1766000   0.4759863   1.5979337  )
        22        H      tau(  22) = (   0.8234000   1.2561327   0.7840732  )
        23        H      tau(  23) = (   0.1766000   1.2561327   0.7840732  )
        24        H      tau(  24) = (   0.8234000   0.4759863   1.5979337  )

     number of k points=   460

     Number of k-points >= 100: set verbosity='high' to print them.

     Dense  grid:   198569 G-vectors     FFT dimensions: (  54,  90,  90)

     Estimated max dynamical RAM per process >      51.98 MB

     Estimated total dynamical RAM >       6.36 GB

     Initial potential from superposition of free atoms

     starting charge      63.9998, renormalised to      64.0000


     %%%%%%%%%%%%%%%%%%%%%%%%%%%%%%%%%%%%%%%%%%%%%%%%%%%%%%%%%%%%%%%%%%%%%%%%
     %                                                                      %
     % You are using vdW-DF, which was implemented by the Thonhauser group. %
     % Please cite the following two papers that made this development      %
     % possible and the two reviews that describe the various versions:     %
     %                                                                      %
     %   T. Thonhauser et al., PRL 115, 136402 (2015).                      %
     %   T. Thonhauser et al., PRB 76, 125112 (2007).                       %
     %   K. Berland et al., Rep. Prog. Phys. 78, 066501 (2015).             %
     %   D.C. Langreth et al., J. Phys.: Condens. Matter 21, 084203 (2009). %
     %                                                                      %
     % If you are calculating stress with vdW-DF, please also cite:         %
     %                                                                      %
     %   R. Sabatini et al., J. Phys.: Condens. Matter 24, 424209 (2012).   %
     %                                                                      %
     %%%%%%%%%%%%%%%%%%%%%%%%%%%%%%%%%%%%%%%%%%%%%%%%%%%%%%%%%%%%%%%%%%%%%%%%

     %%%%%%%%%%%%%%%%%%%%%%%%%%%%%%%%%%%%%%%%%%%%%%%%%%%%%%%%%%%%%%%%%%%%%%%%
     %                                                                      %
     %  vdW-DF NEWS:                                                        %
     %                                                                      %
     %  * vdW-DF3 is now available. DOI: 10.1021/acs.jctc.0c00471           %
     %    use with input_dft = 'vdW-DF3-opt1' or 'vdW-DF3-opt2'             %
     %                                                                      %
     %  * Unscreened and range-separated hybrid vdW-DF-cx functionals       %
     %    DOI: 10.1063/1.4986522 and 10.1088/1361-648X/ac2ad2               %
     %    use with input_dft = 'vdW-DF-cx0'    and 'vdW-DF-ahcx'            %
     %  * Unscreened and range-separated hybrid vdW-DF2-b86r functionals    %
     %    DOI: 10.1063/1.4986522 and DOI: 10.1103/PhysRevX.12.041003        %
     %    use with input_dft = 'vdW-DF2-br0' and 'vdW-DF2-ahbr'             %
     %                                                                      %
     %%%%%%%%%%%%%%%%%%%%%%%%%%%%%%%%%%%%%%%%%%%%%%%%%%%%%%%%%%%%%%%%%%%%%%%%


     Starting wfcs are   48 randomized atomic wfcs

     total cpu time spent up to now is        6.5 secs

     per-process dynamical memory:    59.6 Mb

     Self-consistent Calculation

     iteration #  1     ecut=    90.00 Ry     beta= 0.70
     Davidson diagonalization with overlap
     ethr =  1.00E-02,  avg # of iterations =  2.0

     total cpu time spent up to now is       15.8 secs

     total energy              =    -277.17040564 Ry
     estimated scf accuracy    <       3.35856201 Ry

     iteration #  2     ecut=    90.00 Ry     beta= 0.70
     Davidson diagonalization with overlap
     ethr =  5.25E-03,  avg # of iterations =  3.0

     total cpu time spent up to now is       28.2 secs

     total energy              =    -278.24905600 Ry
     estimated scf accuracy    <       2.31187192 Ry

     iteration #  3     ecut=    90.00 Ry     beta= 0.70
     Davidson diagonalization with overlap
     ethr =  3.61E-03,  avg # of iterations =  2.0

     total cpu time spent up to now is       37.7 secs

     total energy              =    -278.57296477 Ry
     estimated scf accuracy    <       0.09001791 Ry

     iteration #  4     ecut=    90.00 Ry     beta= 0.70
     Davidson diagonalization with overlap
     ethr =  1.41E-04,  avg # of iterations =  4.0

     total cpu time spent up to now is       51.9 secs

     total energy              =    -278.64420693 Ry
     estimated scf accuracy    <       0.11243713 Ry

     iteration #  5     ecut=    90.00 Ry     beta= 0.70
     Davidson diagonalization with overlap
     ethr =  1.41E-04,  avg # of iterations =  2.0

     total cpu time spent up to now is       59.9 secs

     total energy              =    -278.64899585 Ry
     estimated scf accuracy    <       0.01777733 Ry

     iteration #  6     ecut=    90.00 Ry     beta= 0.70
     Davidson diagonalization with overlap
     ethr =  2.78E-05,  avg # of iterations =  2.0

     total cpu time spent up to now is       68.0 secs

     total energy              =    -278.64653605 Ry
     estimated scf accuracy    <       0.00829640 Ry

     iteration #  7     ecut=    90.00 Ry     beta= 0.70
     Davidson diagonalization with overlap
     ethr =  1.30E-05,  avg # of iterations =  3.0

     total cpu time spent up to now is       79.3 secs

     total energy              =    -278.64967635 Ry
     estimated scf accuracy    <       0.00013160 Ry

     iteration #  8     ecut=    90.00 Ry     beta= 0.70
     Davidson diagonalization with overlap
     ethr =  2.06E-07,  avg # of iterations =  4.4

     total cpu time spent up to now is       94.1 secs

     total energy              =    -278.64950360 Ry
     estimated scf accuracy    <       0.00197972 Ry

     iteration #  9     ecut=    90.00 Ry     beta= 0.70
     Davidson diagonalization with overlap
     ethr =  2.06E-07,  avg # of iterations =  3.0

     total cpu time spent up to now is      105.8 secs

     total energy              =    -278.64943556 Ry
     estimated scf accuracy    <       0.00059465 Ry

     iteration # 10     ecut=    90.00 Ry     beta= 0.70
     Davidson diagonalization with overlap
     ethr =  2.06E-07,  avg # of iterations =  2.0

     total cpu time spent up to now is      115.5 secs

     total energy              =    -278.64941285 Ry
     estimated scf accuracy    <       0.00016731 Ry

     iteration # 11     ecut=    90.00 Ry     beta= 0.70
     Davidson diagonalization with overlap
     ethr =  2.06E-07,  avg # of iterations =  2.0

     total cpu time spent up to now is      124.7 secs

     total energy              =    -278.64942208 Ry
     estimated scf accuracy    <       0.00002416 Ry

     iteration # 12     ecut=    90.00 Ry     beta= 0.70
     Davidson diagonalization with overlap
     ethr =  3.77E-08,  avg # of iterations =  3.0

     total cpu time spent up to now is      136.4 secs

     total energy              =    -278.64943199 Ry
     estimated scf accuracy    <       0.00000064 Ry

     iteration # 13     ecut=    90.00 Ry     beta= 0.70
     Davidson diagonalization with overlap
     ethr =  1.01E-09,  avg # of iterations =  3.0

     total cpu time spent up to now is      147.7 secs

     End of self-consistent calculation

     Number of k-points >= 100: set verbosity='high' to print the bands.

     highest occupied level (ev):    -3.7623

!    total energy              =    -278.64943230 Ry
     estimated scf accuracy    <       0.00000009 Ry

     The total energy is the sum of the following terms:
     one-electron contribution =    -239.99049223 Ry
     hartree contribution      =     140.80202247 Ry
     xc contribution           =     -70.85563844 Ry
     ewald contribution        =    -108.60532411 Ry

     convergence has been achieved in  13 iterations

     Forces acting on atoms (cartesian axes, Ry/au):

     atom    1 type  2   force =     0.00000000   -0.05943168   -0.06064335
     atom    2 type  2   force =     0.00000000    0.05943154   -0.06064240
     atom    3 type  2   force =     0.00000000   -0.05943147   -0.06064343
     atom    4 type  2   force =     0.00000000    0.05943143   -0.06064258
     atom    5 type  2   force =     0.00000000    0.10704241   -0.07435179
     atom    6 type  2   force =     0.00000000   -0.10704220   -0.07435141
     atom    7 type  2   force =     0.00000000    0.10704248   -0.07435174
     atom    8 type  2   force =     0.00000000   -0.10704207   -0.07435148
     atom    9 type  1   force =     0.00000000   -0.00341512    0.03297242
     atom   10 type  1   force =     0.00000000    0.00341504    0.03297169
     atom   11 type  1   force =     0.00000000   -0.00341511    0.03297241
     atom   12 type  1   force =     0.00000000    0.00341505    0.03297167
     atom   13 type  1   force =     0.00000000    0.06153215    0.02239713
     atom   14 type  1   force =     0.00000000   -0.06153215    0.02239708
     atom   15 type  1   force =     0.00000000    0.06153215    0.02239711
     atom   16 type  1   force =     0.00000000   -0.06153211    0.02239706
     atom   17 type  1   force =     0.06790427   -0.05353363    0.03981272
     atom   18 type  1   force =    -0.06790426    0.05353354    0.03981271
     atom   19 type  1   force =     0.06790426    0.05353354    0.03981271
     atom   20 type  1   force =    -0.06790427   -0.05353363    0.03981272
     atom   21 type  1   force =     0.06790421   -0.05353361    0.03981270
     atom   22 type  1   force =    -0.06790417    0.05353352    0.03981268
     atom   23 type  1   force =     0.06790417    0.05353352    0.03981268
     atom   24 type  1   force =    -0.06790421   -0.05353361    0.03981270

     Total force =     0.436835     Total SCF correction =     0.000284


     Computing stress (Cartesian axis) and pressure

          total   stress  (Ry/bohr**3)                   (kbar)     P=       34.71
   0.00053152   0.00000000   0.00000000           78.19        0.00        0.00
   0.00000000  -0.00011267  -0.00000000            0.00      -16.57       -0.00
   0.00000000  -0.00000000   0.00028895            0.00       -0.00       42.51


     BFGS Geometry Optimization
     Energy error            =      0.0E+00 Ry
     Gradient error          =      1.1E-01 Ry/Bohr

     number of scf cycles    =   1
     number of bfgs steps    =   0

     energy             new  =    -278.6494323008 Ry

     new trust radius        =       0.1303313980 bohr
     new conv_thr            =       0.0000001000 Ry


ATOMIC_POSITIONS (crystal)
O                0.0000000000        0.6607547808        0.0587075847
O                0.0000000000        0.3392452096        0.5587076300
O                0.5000000000        0.1607547951        0.0587075784
O                0.5000000000        0.8392452024        0.5587076168
O                0.5000000000        0.8327858345        0.9315146943
O                0.5000000000        0.1672141796        0.4315146917
O                0.0000000000        0.3327858394        0.9315146982
O                0.0000000000        0.6672141883        0.4315146869
H                0.0000000000        0.6633675785        0.1986882038
H                0.0000000000        0.3366324164        0.6986881807
H                0.5000000000        0.1633675792        0.1986882033
H                0.5000000000        0.8366324168        0.6986881792
H                0.0000000000        0.5404881794        0.0199222325
H                0.0000000000        0.4595118205        0.5199222253
H                0.5000000000        0.0404881794        0.0199222315
H                0.5000000000        0.9595118236        0.5199222236
H                0.6846056476        0.7711562456        0.9845836517
H                0.3153943540        0.2288437487        0.4845836509
H                0.6846056460        0.2288437487        0.4845836509
H                0.3153943524        0.7711562456        0.9845836517
H                0.1846056404        0.2711562467        0.9845836508
H                0.8153943645        0.7288437472        0.4845836491
H                0.1846056355        0.7288437472        0.4845836491
H                0.8153943596        0.2711562467        0.9845836508



     Writing config-only to output data dir ./iceIh_vdw/iceIh_vdw.save/ :
     XML data file
     NEW-OLD atomic charge density approx. for the potential

     total cpu time spent up to now is      157.7 secs

     per-process dynamical memory:    61.5 Mb

     Self-consistent Calculation

     iteration #  1     ecut=    90.00 Ry     beta= 0.70
     Davidson diagonalization with overlap
     ethr =  1.00E-06,  avg # of iterations = 10.0

     total cpu time spent up to now is      185.9 secs

     total energy              =    -278.67230468 Ry
     estimated scf accuracy    <       0.05813161 Ry

     iteration #  2     ecut=    90.00 Ry     beta= 0.70
     Davidson diagonalization with overlap
     ethr =  9.08E-05,  avg # of iterations =  3.0

     total cpu time spent up to now is      197.5 secs

     total energy              =    -278.68441850 Ry
     estimated scf accuracy    <       0.03362932 Ry

     iteration #  3     ecut=    90.00 Ry     beta= 0.70
     Davidson diagonalization with overlap
     ethr =  5.25E-05,  avg # of iterations =  2.9

     total cpu time spent up to now is      207.4 secs

     total energy              =    -278.69184609 Ry
     estimated scf accuracy    <       0.00044815 Ry

     iteration #  4     ecut=    90.00 Ry     beta= 0.70
     Davidson diagonalization with overlap
     ethr =  7.00E-07,  avg # of iterations =  5.6

     total cpu time spent up to now is      223.3 secs

     total energy              =    -278.69208358 Ry
     estimated scf accuracy    <       0.00093899 Ry

     iteration #  5     ecut=    90.00 Ry     beta= 0.70
     Davidson diagonalization with overlap
     ethr =  7.00E-07,  avg # of iterations =  3.0

     total cpu time spent up to now is      234.5 secs

     total energy              =    -278.69228409 Ry
     estimated scf accuracy    <       0.00001276 Ry

     iteration #  6     ecut=    90.00 Ry     beta= 0.70
     Davidson diagonalization with overlap
     ethr =  1.99E-08,  avg # of iterations =  5.9

     total cpu time spent up to now is      250.5 secs

     total energy              =    -278.69228585 Ry
     estimated scf accuracy    <       0.00006813 Ry

     iteration #  7     ecut=    90.00 Ry     beta= 0.70
     Davidson diagonalization with overlap
     ethr =  1.99E-08,  avg # of iterations =  3.0

     total cpu time spent up to now is      262.1 secs

     total energy              =    -278.69228869 Ry
     estimated scf accuracy    <       0.00000749 Ry

     iteration #  8     ecut=    90.00 Ry     beta= 0.70
     Davidson diagonalization with overlap
     ethr =  1.17E-08,  avg # of iterations =  2.3

     total cpu time spent up to now is      272.3 secs

     total energy              =    -278.69229145 Ry
     estimated scf accuracy    <       0.00000060 Ry

     iteration #  9     ecut=    90.00 Ry     beta= 0.70
     Davidson diagonalization with overlap
     ethr =  9.30E-10,  avg # of iterations =  2.0

     total cpu time spent up to now is      280.6 secs

     total energy              =    -278.69229137 Ry
     estimated scf accuracy    <       0.00000033 Ry

     iteration # 10     ecut=    90.00 Ry     beta= 0.70
     Davidson diagonalization with overlap
     ethr =  5.21E-10,  avg # of iterations =  2.0

     total cpu time spent up to now is      289.3 secs

     End of self-consistent calculation

     Number of k-points >= 100: set verbosity='high' to print the bands.

     highest occupied level (ev):    -3.7691

!    total energy              =    -278.69229140 Ry
     estimated scf accuracy    <       0.00000003 Ry

     The total energy is the sum of the following terms:
     one-electron contribution =    -235.36461182 Ry
     hartree contribution      =     138.71449968 Ry
     xc contribution           =     -70.39748730 Ry
     ewald contribution        =    -111.64469195 Ry

     convergence has been achieved in  10 iterations

     Forces acting on atoms (cartesian axes, Ry/au):

     atom    1 type  2   force =     0.00000000    0.04518677    0.04006288
     atom    2 type  2   force =     0.00000000   -0.04518644    0.04006210
     atom    3 type  2   force =     0.00000000    0.04518657    0.04006289
     atom    4 type  2   force =     0.00000000   -0.04518634    0.04006221
     atom    5 type  2   force =     0.00000000   -0.03721981    0.03497490
     atom    6 type  2   force =     0.00000000    0.03721966    0.03497480
     atom    7 type  2   force =     0.00000000   -0.03721978    0.03497487
     atom    8 type  2   force =     0.00000000    0.03721958    0.03497475
     atom    9 type  1   force =     0.00000000   -0.00354036   -0.02759275
     atom   10 type  1   force =     0.00000000    0.00354039   -0.02759217
     atom   11 type  1   force =     0.00000000   -0.00354034   -0.02759280
     atom   12 type  1   force =     0.00000000    0.00354037   -0.02759228
     atom   13 type  1   force =     0.00000000   -0.03157987   -0.01070162
     atom   14 type  1   force =     0.00000000    0.03157956   -0.01070148
     atom   15 type  1   force =     0.00000000   -0.03157970   -0.01070159
     atom   16 type  1   force =     0.00000000    0.03157947   -0.01070148
     atom   17 type  1   force =    -0.03607583    0.01319931   -0.01837168
     atom   18 type  1   force =     0.03607579   -0.01319926   -0.01837164
     atom   19 type  1   force =    -0.03607579   -0.01319926   -0.01837164
     atom   20 type  1   force =     0.03607583    0.01319931   -0.01837168
     atom   21 type  1   force =    -0.03607581    0.01319931   -0.01837167
     atom   22 type  1   force =     0.03607572   -0.01319922   -0.01837162
     atom   23 type  1   force =    -0.03607572   -0.01319922   -0.01837162
     atom   24 type  1   force =     0.03607581    0.01319931   -0.01837167

     Total force =     0.216956     Total SCF correction =     0.000148


     Computing stress (Cartesian axis) and pressure

          total   stress  (Ry/bohr**3)                   (kbar)     P=      -17.65
  -0.00029333   0.00000000   0.00000000          -43.15        0.00        0.00
   0.00000000   0.00009807   0.00000000            0.00       14.43        0.00
   0.00000000   0.00000000  -0.00016479            0.00        0.00      -24.24

     Energy error            =      4.3E-02 Ry
     Gradient error          =      4.5E-02 Ry/Bohr

     number of scf cycles    =   2
     number of bfgs steps    =   1

     energy             old  =    -278.6494323008 Ry
     energy             new  =    -278.6922913951 Ry

     CASE: energy            _new < energy            _old

     new trust radius        =       0.0401001816 bohr
     new conv_thr            =       0.0000000452 Ry


ATOMIC_POSITIONS (crystal)
O                0.0000000000        0.6627999431        0.0606309972
O                0.0000000000        0.3372000626        0.5606310045
O                0.5000000000        0.1627999482        0.0606309910
O                0.5000000000        0.8372000598        0.5606309970
O                0.5000000000        0.8311434100        0.9331773014
O                0.5000000000        0.1688565975        0.4331772939
O                0.0000000000        0.3311434160        0.9331773040
O                0.0000000000        0.6688566025        0.4331772867
H                0.0000000000        0.6632014842        0.1973566890
H                0.0000000000        0.3367985122        0.6973566943
H                0.5000000000        0.1632014859        0.1973566864
H                0.5000000000        0.8367985116        0.6973566874
H                0.0000000000        0.5390733783        0.0194132353
H                0.0000000000        0.4609266070        0.5194132349
H                0.5000000000        0.0390733861        0.0194132359
H                0.5000000000        0.9609266063        0.5194132335
H                0.6818031550        0.7717274003        0.9837108989
H                0.3181968431        0.2282725961        0.4837109002
H                0.6818031569        0.2282725961        0.4837109002
H                0.3181968450        0.7717274003        0.9837108989
H                0.1818031497        0.2717274016        0.9837108985
H                0.8181968485        0.7282725964        0.4837108993
H                0.1818031515        0.7282725964        0.4837108993
H                0.8181968503        0.2717274016        0.9837108985



     Writing config-only to output data dir ./iceIh_vdw/iceIh_vdw.save/ :
     XML data file
     NEW-OLD atomic charge density approx. for the potential

     total cpu time spent up to now is      299.2 secs

     per-process dynamical memory:    61.9 Mb

     Self-consistent Calculation

     iteration #  1     ecut=    90.00 Ry     beta= 0.70
     Davidson diagonalization with overlap
     ethr =  1.00E-06,  avg # of iterations =  8.0

     total cpu time spent up to now is      320.5 secs

     total energy              =    -278.70732693 Ry
     estimated scf accuracy    <       0.00550936 Ry

     iteration #  2     ecut=    90.00 Ry     beta= 0.70
     Davidson diagonalization with overlap
     ethr =  8.61E-06,  avg # of iterations =  3.0

     total cpu time spent up to now is      331.7 secs

     total energy              =    -278.70847012 Ry
     estimated scf accuracy    <       0.00214983 Ry

     iteration #  3     ecut=    90.00 Ry     beta= 0.70
     Davidson diagonalization with overlap
     ethr =  3.36E-06,  avg # of iterations =  3.0

     total cpu time spent up to now is      342.2 secs

     total energy              =    -278.70898625 Ry
     estimated scf accuracy    <       0.00006916 Ry

     iteration #  4     ecut=    90.00 Ry     beta= 0.70
     Davidson diagonalization with overlap
     ethr =  1.08E-07,  avg # of iterations =  3.3

     total cpu time spent up to now is      352.9 secs

     total energy              =    -278.70900084 Ry
     estimated scf accuracy    <       0.00001747 Ry

     iteration #  5     ecut=    90.00 Ry     beta= 0.70
     Davidson diagonalization with overlap
     ethr =  2.73E-08,  avg # of iterations =  3.2

     total cpu time spent up to now is      363.8 secs

     total energy              =    -278.70900632 Ry
     estimated scf accuracy    <       0.00000082 Ry

     iteration #  6     ecut=    90.00 Ry     beta= 0.70
     Davidson diagonalization with overlap
     ethr =  1.28E-09,  avg # of iterations =  2.9

     total cpu time spent up to now is      374.3 secs

     total energy              =    -278.70900629 Ry
     estimated scf accuracy    <       0.00000049 Ry

     iteration #  7     ecut=    90.00 Ry     beta= 0.70
     Davidson diagonalization with overlap
     ethr =  7.72E-10,  avg # of iterations =  3.1

     total cpu time spent up to now is      385.0 secs

     End of self-consistent calculation

     Number of k-points >= 100: set verbosity='high' to print the bands.

     highest occupied level (ev):    -3.7925

!    total energy              =    -278.70900641 Ry
     estimated scf accuracy    <       0.00000002 Ry

     The total energy is the sum of the following terms:
     one-electron contribution =    -236.50822238 Ry
     hartree contribution      =     139.23031741 Ry
     xc contribution           =     -70.51084456 Ry
     ewald contribution        =    -110.92025689 Ry

     convergence has been achieved in   7 iterations

     Forces acting on atoms (cartesian axes, Ry/au):

     atom    1 type  2   force =     0.00000000   -0.00619304   -0.00471357
     atom    2 type  2   force =     0.00000000    0.00619286   -0.00471355
     atom    3 type  2   force =     0.00000000   -0.00619301   -0.00471350
     atom    4 type  2   force =     0.00000000    0.00619287   -0.00471353
     atom    5 type  2   force =     0.00000000   -0.00427155    0.01208220
     atom    6 type  2   force =     0.00000000    0.00427153    0.01208220
     atom    7 type  2   force =     0.00000000   -0.00427155    0.01208220
     atom    8 type  2   force =     0.00000000    0.00427150    0.01208220
     atom    9 type  1   force =     0.00000000   -0.00184622   -0.00092273
     atom   10 type  1   force =     0.00000000    0.00184626   -0.00092271
     atom   11 type  1   force =     0.00000000   -0.00184622   -0.00092276
     atom   12 type  1   force =     0.00000000    0.00184625   -0.00092271
     atom   13 type  1   force =     0.00000000    0.01282328    0.00345488
     atom   14 type  1   force =     0.00000000   -0.01282312    0.00345486
     atom   15 type  1   force =     0.00000000    0.01282323    0.00345486
     atom   16 type  1   force =     0.00000000   -0.01282312    0.00345485
     atom   17 type  1   force =    -0.01425769   -0.00058770   -0.00495040
     atom   18 type  1   force =     0.01425769    0.00058771   -0.00495040
     atom   19 type  1   force =    -0.01425769    0.00058771   -0.00495040
     atom   20 type  1   force =     0.01425769   -0.00058770   -0.00495040
     atom   21 type  1   force =    -0.01425767   -0.00058769   -0.00495040
     atom   22 type  1   force =     0.01425766    0.00058772   -0.00495040
     atom   23 type  1   force =    -0.01425766    0.00058772   -0.00495040
     atom   24 type  1   force =     0.01425767   -0.00058769   -0.00495040

     Total force =     0.058709     Total SCF correction =     0.000100


     Computing stress (Cartesian axis) and pressure

          total   stress  (Ry/bohr**3)                   (kbar)     P=       -6.92
  -0.00010610   0.00000000   0.00000000          -15.61        0.00        0.00
   0.00000000  -0.00004835  -0.00000000            0.00       -7.11       -0.00
   0.00000000  -0.00000000   0.00001339            0.00       -0.00        1.97

     Energy error            =      1.7E-02 Ry
     Gradient error          =      1.4E-02 Ry/Bohr

     number of scf cycles    =   3
     number of bfgs steps    =   2

     energy             old  =    -278.6922913951 Ry
     energy             new  =    -278.7090064141 Ry

     CASE: energy            _new < energy            _old

     new trust radius        =       0.0183547269 bohr
     new conv_thr            =       0.0000000143 Ry


ATOMIC_POSITIONS (crystal)
O                0.0000000000        0.6624973070        0.0604068904
O                0.0000000000        0.3375026864        0.5604068964
O                0.5000000000        0.1624973134        0.0604068895
O                0.5000000000        0.8375026847        0.5604068911
O                0.5000000000        0.8306989215        0.9342523659
O                0.5000000000        0.1693010840        0.4342523580
O                0.0000000000        0.3306989272        0.9342523680
O                0.0000000000        0.6693010867        0.4342523508
H                0.0000000000        0.6630539885        0.1971848834
H                0.0000000000        0.3369460104        0.6971848922
H                0.5000000000        0.1630539907        0.1971848780
H                0.5000000000        0.8369460090        0.6971848846
H                0.0000000000        0.5399092844        0.0196447769
H                0.0000000000        0.4600907117        0.5196447749
H                0.5000000000        0.0399092894        0.0196447757
H                0.5000000000        0.9600907105        0.5196447728
H                0.6797700989        0.7717311367        0.9832555517
H                0.3202298997        0.2282688606        0.4832555530
H                0.6797701003        0.2282688606        0.4832555530
H                0.3202299011        0.7717311367        0.9832555517
H                0.1797700963        0.2717311381        0.9832555515
H                0.8202299013        0.7282688618        0.4832555524
H                0.1797700987        0.7282688618        0.4832555524
H                0.8202299037        0.2717311381        0.9832555515



     Writing config-only to output data dir ./iceIh_vdw/iceIh_vdw.save/ :
     XML data file
     NEW-OLD atomic charge density approx. for the potential

     total cpu time spent up to now is      394.8 secs

     per-process dynamical memory:    62.0 Mb

     Self-consistent Calculation

     iteration #  1     ecut=    90.00 Ry     beta= 0.70
     Davidson diagonalization with overlap
     ethr =  1.00E-06,  avg # of iterations =  4.0

     total cpu time spent up to now is      409.8 secs

     total energy              =    -278.71045176 Ry
     estimated scf accuracy    <       0.00094408 Ry

     iteration #  2     ecut=    90.00 Ry     beta= 0.70
     Davidson diagonalization with overlap
     ethr =  1.48E-06,  avg # of iterations =  3.0

     total cpu time spent up to now is      421.2 secs

     total energy              =    -278.71067861 Ry
     estimated scf accuracy    <       0.00041762 Ry

     iteration #  3     ecut=    90.00 Ry     beta= 0.70
     Davidson diagonalization with overlap
     ethr =  6.53E-07,  avg # of iterations =  2.9

     total cpu time spent up to now is      431.0 secs

     total energy              =    -278.71076302 Ry
     estimated scf accuracy    <       0.00001072 Ry

     iteration #  4     ecut=    90.00 Ry     beta= 0.70
     Davidson diagonalization with overlap
     ethr =  1.68E-08,  avg # of iterations =  4.0

     total cpu time spent up to now is      443.9 secs

     total energy              =    -278.71076821 Ry
     estimated scf accuracy    <       0.00000785 Ry

     iteration #  5     ecut=    90.00 Ry     beta= 0.70
     Davidson diagonalization with overlap
     ethr =  1.23E-08,  avg # of iterations =  2.0

     total cpu time spent up to now is      452.9 secs

     total energy              =    -278.71076885 Ry
     estimated scf accuracy    <       0.00000103 Ry

     iteration #  6     ecut=    90.00 Ry     beta= 0.70
     Davidson diagonalization with overlap
     ethr =  1.61E-09,  avg # of iterations =  3.0

     total cpu time spent up to now is      464.7 secs

     total energy              =    -278.71076930 Ry
     estimated scf accuracy    <       0.00000044 Ry

     iteration #  7     ecut=    90.00 Ry     beta= 0.70
     Davidson diagonalization with overlap
     ethr =  6.94E-10,  avg # of iterations =  2.0

     total cpu time spent up to now is      473.4 secs

     total energy              =    -278.71076933 Ry
     estimated scf accuracy    <       0.00000004 Ry

     iteration #  8     ecut=    90.00 Ry     beta= 0.70
     Davidson diagonalization with overlap
     ethr =  6.51E-11,  avg # of iterations =  3.0

     total cpu time spent up to now is      485.1 secs

     End of self-consistent calculation

     Number of k-points >= 100: set verbosity='high' to print the bands.

     highest occupied level (ev):    -3.8126

!    total energy              =    -278.71076935 Ry
     estimated scf accuracy    <          1.5E-09 Ry

     The total energy is the sum of the following terms:
     one-electron contribution =    -237.53486907 Ry
     hartree contribution      =     139.69178833 Ry
     xc contribution           =     -70.61171099 Ry
     ewald contribution        =    -110.25597761 Ry

     convergence has been achieved in   8 iterations

     Forces acting on atoms (cartesian axes, Ry/au):

     atom    1 type  2   force =     0.00000000    0.00467041    0.00128164
     atom    2 type  2   force =     0.00000000   -0.00467035    0.00128165
     atom    3 type  2   force =     0.00000000    0.00467038    0.00128160
     atom    4 type  2   force =     0.00000000   -0.00467035    0.00128164
     atom    5 type  2   force =     0.00000000    0.01098251   -0.00238655
     atom    6 type  2   force =     0.00000000   -0.01098252   -0.00238654
     atom    7 type  2   force =     0.00000000    0.01098249   -0.00238654
     atom    8 type  2   force =     0.00000000   -0.01098251   -0.00238652
     atom    9 type  1   force =     0.00000000   -0.00198042   -0.00266793
     atom   10 type  1   force =     0.00000000    0.00198043   -0.00266796
     atom   11 type  1   force =     0.00000000   -0.00198042   -0.00266788
     atom   12 type  1   force =     0.00000000    0.00198042   -0.00266794
     atom   13 type  1   force =     0.00000000    0.00177862    0.00050791
     atom   14 type  1   force =     0.00000000   -0.00177867    0.00050793
     atom   15 type  1   force =     0.00000000    0.00177863    0.00050791
     atom   16 type  1   force =     0.00000000   -0.00177866    0.00050792
     atom   17 type  1   force =    -0.00013565   -0.00813434    0.00163246
     atom   18 type  1   force =     0.00013565    0.00813434    0.00163246
     atom   19 type  1   force =    -0.00013565    0.00813434    0.00163246
     atom   20 type  1   force =     0.00013565   -0.00813434    0.00163246
     atom   21 type  1   force =    -0.00013564   -0.00813433    0.00163246
     atom   22 type  1   force =     0.00013566    0.00813433    0.00163245
     atom   23 type  1   force =    -0.00013566    0.00813433    0.00163245
     atom   24 type  1   force =     0.00013564   -0.00813433    0.00163246

     Total force =     0.034752     Total SCF correction =     0.000025


     Computing stress (Cartesian axis) and pressure

          total   stress  (Ry/bohr**3)                   (kbar)     P=        3.90
   0.00000734   0.00000000   0.00000000            1.08        0.00        0.00
   0.00000000   0.00004432   0.00000000            0.00        6.52        0.00
   0.00000000   0.00000000   0.00002781            0.00        0.00        4.09

     Energy error            =      1.8E-03 Ry
     Gradient error          =      1.1E-02 Ry/Bohr

     number of scf cycles    =   4
     number of bfgs steps    =   3

     energy             old  =    -278.7090064141 Ry
     energy             new  =    -278.7107693468 Ry

     CASE: energy            _new < energy            _old

     new trust radius        =       0.0084516435 bohr
     new conv_thr            =       0.0000000110 Ry


ATOMIC_POSITIONS (crystal)
O                0.0000000000        0.6627591391        0.0604775905
O                0.0000000000        0.3372408560        0.5604775960
O                0.5000000000        0.1627591438        0.0604775876
O                0.5000000000        0.8372408544        0.5604775905
O                0.5000000000        0.8312681421        0.9343408243
O                0.5000000000        0.1687318621        0.4343408169
O                0.0000000000        0.3312681467        0.9343408264
O                0.0000000000        0.6687318649        0.4343408108
H                0.0000000000        0.6628959921        0.1969485715
H                0.0000000000        0.3371040078        0.6969485797
H                0.5000000000        0.1628959947        0.1969485685
H                0.5000000000        0.8371040058        0.6969485735
H                0.0000000000        0.5401720439        0.0197195820
H                0.0000000000        0.4598279508        0.5197195810
H                0.5000000000        0.0401720494        0.0197195805
H                0.5000000000        0.9598279498        0.5197195784
H                0.6792934061        0.7712321522        0.9832567257
H                0.3207065931        0.2287678455        0.4832567269
H                0.6792934069        0.2287678455        0.4832567269
H                0.3207065939        0.7712321522        0.9832567257
H                0.1792934045        0.2712321540        0.9832567254
H                0.8207065939        0.7287678466        0.4832567258
H                0.1792934061        0.7287678466        0.4832567258
H                0.8207065955        0.2712321540        0.9832567254



     Writing config-only to output data dir ./iceIh_vdw/iceIh_vdw.save/ :
     XML data file
     NEW-OLD atomic charge density approx. for the potential

     total cpu time spent up to now is      495.0 secs

     per-process dynamical memory:    61.9 Mb

     Self-consistent Calculation

     iteration #  1     ecut=    90.00 Ry     beta= 0.70
     Davidson diagonalization with overlap
     ethr =  1.00E-06,  avg # of iterations =  3.0

     total cpu time spent up to now is      508.0 secs

     total energy              =    -278.71156662 Ry
     estimated scf accuracy    <       0.00006523 Ry

     iteration #  2     ecut=    90.00 Ry     beta= 0.70
     Davidson diagonalization with overlap
     ethr =  1.02E-07,  avg # of iterations =  3.0

     total cpu time spent up to now is      521.0 secs

     total energy              =    -278.71157889 Ry
     estimated scf accuracy    <       0.00001875 Ry

     iteration #  3     ecut=    90.00 Ry     beta= 0.70
     Davidson diagonalization with overlap
     ethr =  2.93E-08,  avg # of iterations =  3.2

     total cpu time spent up to now is      531.7 secs

     total energy              =    -278.71158407 Ry
     estimated scf accuracy    <       0.00000189 Ry

     iteration #  4     ecut=    90.00 Ry     beta= 0.70
     Davidson diagonalization with overlap
     ethr =  2.95E-09,  avg # of iterations =  2.0

     total cpu time spent up to now is      540.7 secs

     total energy              =    -278.71158426 Ry
     estimated scf accuracy    <       0.00000018 Ry

     iteration #  5     ecut=    90.00 Ry     beta= 0.70
     Davidson diagonalization with overlap
     ethr =  2.87E-10,  avg # of iterations =  3.2

     total cpu time spent up to now is      551.9 secs

     total energy              =    -278.71158433 Ry
     estimated scf accuracy    <       0.00000001 Ry

     iteration #  6     ecut=    90.00 Ry     beta= 0.70
     Davidson diagonalization with overlap
     ethr =  2.02E-11,  avg # of iterations =  2.9

     total cpu time spent up to now is      561.9 secs

     End of self-consistent calculation

     Number of k-points >= 100: set verbosity='high' to print the bands.

     highest occupied level (ev):    -3.8199

!    total energy              =    -278.71158433 Ry
     estimated scf accuracy    <          6.7E-09 Ry

     The total energy is the sum of the following terms:
     one-electron contribution =    -237.50796279 Ry
     hartree contribution      =     139.67818058 Ry
     xc contribution           =     -70.60816934 Ry
     ewald contribution        =    -110.27363278 Ry

     convergence has been achieved in   6 iterations

     Forces acting on atoms (cartesian axes, Ry/au):

     atom    1 type  2   force =     0.00000000    0.00396168   -0.00172991
     atom    2 type  2   force =     0.00000000   -0.00396166   -0.00172989
     atom    3 type  2   force =     0.00000000    0.00396169   -0.00172991
     atom    4 type  2   force =     0.00000000   -0.00396166   -0.00172989
     atom    5 type  2   force =     0.00000000    0.00598599    0.00075767
     atom    6 type  2   force =     0.00000000   -0.00598600    0.00075768
     atom    7 type  2   force =     0.00000000    0.00598598    0.00075767
     atom    8 type  2   force =     0.00000000   -0.00598599    0.00075770
     atom    9 type  1   force =     0.00000000   -0.00136373    0.00061760
     atom   10 type  1   force =     0.00000000    0.00136373    0.00061757
     atom   11 type  1   force =     0.00000000   -0.00136372    0.00061760
     atom   12 type  1   force =     0.00000000    0.00136373    0.00061758
     atom   13 type  1   force =     0.00000000    0.00143368    0.00009707
     atom   14 type  1   force =     0.00000000   -0.00143370    0.00009708
     atom   15 type  1   force =     0.00000000    0.00143367    0.00009707
     atom   16 type  1   force =     0.00000000   -0.00143369    0.00009708
     atom   17 type  1   force =    -0.00091251   -0.00539021    0.00012878
     atom   18 type  1   force =     0.00091252    0.00539021    0.00012878
     atom   19 type  1   force =    -0.00091252    0.00539021    0.00012878
     atom   20 type  1   force =     0.00091251   -0.00539021    0.00012878
     atom   21 type  1   force =    -0.00091251   -0.00539021    0.00012878
     atom   22 type  1   force =     0.00091252    0.00539021    0.00012877
     atom   23 type  1   force =    -0.00091252    0.00539021    0.00012877
     atom   24 type  1   force =     0.00091251   -0.00539021    0.00012878

     Total force =     0.021836     Total SCF correction =     0.000091


     Computing stress (Cartesian axis) and pressure

          total   stress  (Ry/bohr**3)                   (kbar)     P=        3.74
  -0.00000097   0.00000000   0.00000000           -0.14        0.00        0.00
   0.00000000   0.00003781   0.00000000            0.00        5.56        0.00
   0.00000000   0.00000000   0.00003946            0.00        0.00        5.80

     Energy error            =      8.1E-04 Ry
     Gradient error          =      6.0E-03 Ry/Bohr

     number of scf cycles    =   5
     number of bfgs steps    =   4

     energy             old  =    -278.7107693468 Ry
     energy             new  =    -278.7115843263 Ry

     CASE: energy            _new < energy            _old

     new trust radius        =       0.0092968079 bohr
     new conv_thr            =       0.0000000060 Ry


ATOMIC_POSITIONS (crystal)
O                0.0000000000        0.6631145818        0.0603650637
O                0.0000000000        0.3368854141        0.5603650698
O                0.5000000000        0.1631145863        0.0603650618
O                0.5000000000        0.8368854126        0.5603650648
O                0.5000000000        0.8317728500        0.9346125566
O                0.5000000000        0.1682271530        0.4346125502
O                0.0000000000        0.3317728537        0.9346125586
O                0.0000000000        0.6682271557        0.4346125455
H                0.0000000000        0.6627259639        0.1968788551
H                0.0000000000        0.3372740370        0.6968788621
H                0.5000000000        0.1627259669        0.1968788524
H                0.5000000000        0.8372740346        0.6968788566
H                0.0000000000        0.5404508456        0.0197744114
H                0.0000000000        0.4595491488        0.5197744112
H                0.5000000000        0.0404508499        0.0197744090
H                0.5000000000        0.9595491480        0.5197744081
H                0.6786935187        0.7707069158        0.9831845662
H                0.3213064813        0.2292930822        0.4831845671
H                0.6786935187        0.2292930822        0.4831845671
H                0.3213064813        0.7707069158        0.9831845662
H                0.1786935184        0.2707069179        0.9831845659
H                0.8213064813        0.7292930831        0.4831845655
H                0.1786935187        0.7292930831        0.4831845655
H                0.8213064816        0.2707069179        0.9831845659



     Writing config-only to output data dir ./iceIh_vdw/iceIh_vdw.save/ :
     XML data file
     NEW-OLD atomic charge density approx. for the potential

     total cpu time spent up to now is      571.8 secs

     per-process dynamical memory:    61.9 Mb

     Self-consistent Calculation

     iteration #  1     ecut=    90.00 Ry     beta= 0.70
     Davidson diagonalization with overlap
     ethr =  1.00E-06,  avg # of iterations =  3.0

     Threshold (ethr) on eigenvalues was too large:
     Diagonalizing with lowered threshold

     Davidson diagonalization with overlap
     ethr =  8.77E-08,  avg # of iterations =  2.0

     total cpu time spent up to now is      593.1 secs

     total energy              =    -278.71213130 Ry
     estimated scf accuracy    <       0.00006347 Ry

     iteration #  2     ecut=    90.00 Ry     beta= 0.70
     Davidson diagonalization with overlap
     ethr =  9.92E-08,  avg # of iterations =  2.0

     total cpu time spent up to now is      602.9 secs

     total energy              =    -278.71214092 Ry
     estimated scf accuracy    <       0.00000573 Ry

     iteration #  3     ecut=    90.00 Ry     beta= 0.70
     Davidson diagonalization with overlap
     ethr =  8.95E-09,  avg # of iterations =  2.1

     total cpu time spent up to now is      613.1 secs

     total energy              =    -278.71214245 Ry
     estimated scf accuracy    <       0.00000070 Ry

     iteration #  4     ecut=    90.00 Ry     beta= 0.70
     Davidson diagonalization with overlap
     ethr =  1.10E-09,  avg # of iterations =  2.0

     total cpu time spent up to now is      621.8 secs

     total energy              =    -278.71214255 Ry
     estimated scf accuracy    <       0.00000004 Ry

     iteration #  5     ecut=    90.00 Ry     beta= 0.70
     Davidson diagonalization with overlap
     ethr =  6.74E-11,  avg # of iterations =  3.0

     total cpu time spent up to now is      632.9 secs

     total energy              =    -278.71214256 Ry
     estimated scf accuracy    <       0.00000002 Ry

     iteration #  6     ecut=    90.00 Ry     beta= 0.70
     Davidson diagonalization with overlap
     ethr =  2.75E-11,  avg # of iterations =  2.2

     total cpu time spent up to now is      641.8 secs

     End of self-consistent calculation

     Number of k-points >= 100: set verbosity='high' to print the bands.

     highest occupied level (ev):    -3.8251

!    total energy              =    -278.71214256 Ry
     estimated scf accuracy    <          1.9E-09 Ry

     The total energy is the sum of the following terms:
     one-electron contribution =    -237.46823009 Ry
     hartree contribution      =     139.65854678 Ry
     xc contribution           =     -70.60333350 Ry
     ewald contribution        =    -110.29912575 Ry

     convergence has been achieved in   6 iterations

     Forces acting on atoms (cartesian axes, Ry/au):

     atom    1 type  2   force =     0.00000000    0.00260705   -0.00075205
     atom    2 type  2   force =     0.00000000   -0.00260704   -0.00075205
     atom    3 type  2   force =     0.00000000    0.00260704   -0.00075206
     atom    4 type  2   force =     0.00000000   -0.00260704   -0.00075204
     atom    5 type  2   force =     0.00000000    0.00271787    0.00206607
     atom    6 type  2   force =     0.00000000   -0.00271787    0.00206607
     atom    7 type  2   force =     0.00000000    0.00271787    0.00206606
     atom    8 type  2   force =     0.00000000   -0.00271788    0.00206608
     atom    9 type  1   force =     0.00000000   -0.00054055    0.00027920
     atom   10 type  1   force =     0.00000000    0.00054055    0.00027919
     atom   11 type  1   force =     0.00000000   -0.00054055    0.00027921
     atom   12 type  1   force =     0.00000000    0.00054055    0.00027920
     atom   13 type  1   force =     0.00000000    0.00147721   -0.00036205
     atom   14 type  1   force =     0.00000000   -0.00147722   -0.00036205
     atom   15 type  1   force =     0.00000000    0.00147721   -0.00036205
     atom   16 type  1   force =     0.00000000   -0.00147722   -0.00036205
     atom   17 type  1   force =    -0.00026545   -0.00347454   -0.00061559
     atom   18 type  1   force =     0.00026546    0.00347454   -0.00061559
     atom   19 type  1   force =    -0.00026546    0.00347454   -0.00061559
     atom   20 type  1   force =     0.00026545   -0.00347454   -0.00061559
     atom   21 type  1   force =    -0.00026545   -0.00347454   -0.00061559
     atom   22 type  1   force =     0.00026546    0.00347454   -0.00061559
     atom   23 type  1   force =    -0.00026546    0.00347454   -0.00061559
     atom   24 type  1   force =     0.00026545   -0.00347454   -0.00061559

     Total force =     0.013674     Total SCF correction =     0.000086


     Computing stress (Cartesian axis) and pressure

          total   stress  (Ry/bohr**3)                   (kbar)     P=        3.45
   0.00000241   0.00000000   0.00000000            0.35        0.00        0.00
   0.00000000   0.00003357   0.00000000            0.00        4.94        0.00
   0.00000000   0.00000000   0.00003437            0.00        0.00        5.06

     Energy error            =      5.6E-04 Ry
     Gradient error          =      3.5E-03 Ry/Bohr

     number of scf cycles    =   6
     number of bfgs steps    =   5

     energy             old  =    -278.7115843263 Ry
     energy             new  =    -278.7121425647 Ry

     CASE: energy            _new < energy            _old

     new trust radius        =       0.0139452119 bohr
     new conv_thr            =       0.0000000035 Ry


ATOMIC_POSITIONS (crystal)
O                0.0000000000        0.6636479169        0.0602669591
O                0.0000000000        0.3363520802        0.5602669648
O                0.5000000000        0.1636479193        0.0602669564
O                0.5000000000        0.8363520789        0.5602669605
O                0.5000000000        0.8324128176        0.9352230965
O                0.5000000000        0.1675871837        0.4352230919
O                0.0000000000        0.3324128198        0.9352230981
O                0.0000000000        0.6675871856        0.4352230891
H                0.0000000000        0.6625154257        0.1967353099
H                0.0000000000        0.3374845769        0.6967353162
H                0.5000000000        0.1625154289        0.1967353090
H                0.5000000000        0.8374845738        0.6967353119
H                0.0000000000        0.5409571588        0.0197989455
H                0.0000000000        0.4590428358        0.5197989463
H                0.5000000000        0.0409571629        0.0197989426
H                0.5000000000        0.9590428350        0.5197989427
H                0.6778969216        0.7698974339        0.9829878536
H                0.3221030796        0.2301025645        0.4829878540
H                0.6778969204        0.2301025645        0.4829878540
H                0.3221030784        0.7698974339        0.9829878536
H                0.1778969229        0.2698974364        0.9829878534
H                0.8221030783        0.7301025654        0.4829878516
H                0.1778969217        0.7301025654        0.4829878516
H                0.8221030771        0.2698974364        0.9829878534



     Writing config-only to output data dir ./iceIh_vdw/iceIh_vdw.save/ :
     XML data file
     NEW-OLD atomic charge density approx. for the potential

     total cpu time spent up to now is      651.7 secs

     per-process dynamical memory:    61.9 Mb

     Self-consistent Calculation

     iteration #  1     ecut=    90.00 Ry     beta= 0.70
     Davidson diagonalization with overlap
     ethr =  1.00E-06,  avg # of iterations =  4.0

     total cpu time spent up to now is      666.2 secs

     total energy              =    -278.71255170 Ry
     estimated scf accuracy    <       0.00012894 Ry

     iteration #  2     ecut=    90.00 Ry     beta= 0.70
     Davidson diagonalization with overlap
     ethr =  2.01E-07,  avg # of iterations =  2.0

     total cpu time spent up to now is      674.8 secs

     total energy              =    -278.71256773 Ry
     estimated scf accuracy    <       0.00000709 Ry

     iteration #  3     ecut=    90.00 Ry     beta= 0.70
     Davidson diagonalization with overlap
     ethr =  1.11E-08,  avg # of iterations =  2.3

     total cpu time spent up to now is      684.9 secs

     total energy              =    -278.71256947 Ry
     estimated scf accuracy    <       0.00000093 Ry

     iteration #  4     ecut=    90.00 Ry     beta= 0.70
     Davidson diagonalization with overlap
     ethr =  1.45E-09,  avg # of iterations =  2.4

     total cpu time spent up to now is      695.0 secs

     total energy              =    -278.71256970 Ry
     estimated scf accuracy    <       0.00000012 Ry

     iteration #  5     ecut=    90.00 Ry     beta= 0.70
     Davidson diagonalization with overlap
     ethr =  1.84E-10,  avg # of iterations =  2.3

     total cpu time spent up to now is      705.3 secs

     total energy              =    -278.71256972 Ry
     estimated scf accuracy    <       0.00000002 Ry

     iteration #  6     ecut=    90.00 Ry     beta= 0.70
     Davidson diagonalization with overlap
     ethr =  2.69E-11,  avg # of iterations =  2.3

     total cpu time spent up to now is      715.0 secs

     End of self-consistent calculation

     Number of k-points >= 100: set verbosity='high' to print the bands.

     highest occupied level (ev):    -3.8347

!    total energy              =    -278.71256972 Ry
     estimated scf accuracy    <          1.5E-09 Ry

     The total energy is the sum of the following terms:
     one-electron contribution =    -237.47138138 Ry
     hartree contribution      =     139.65773616 Ry
     xc contribution           =     -70.60245353 Ry
     ewald contribution        =    -110.29647098 Ry

     convergence has been achieved in   6 iterations

     Forces acting on atoms (cartesian axes, Ry/au):

     atom    1 type  2   force =     0.00000000    0.00109452   -0.00044429
     atom    2 type  2   force =     0.00000000   -0.00109452   -0.00044429
     atom    3 type  2   force =     0.00000000    0.00109454   -0.00044427
     atom    4 type  2   force =     0.00000000   -0.00109452   -0.00044428
     atom    5 type  2   force =     0.00000000   -0.00098965    0.00271265
     atom    6 type  2   force =     0.00000000    0.00098965    0.00271265
     atom    7 type  2   force =     0.00000000   -0.00098965    0.00271265
     atom    8 type  2   force =     0.00000000    0.00098964    0.00271266
     atom    9 type  1   force =     0.00000000    0.00047981    0.00080726
     atom   10 type  1   force =     0.00000000   -0.00047981    0.00080726
     atom   11 type  1   force =     0.00000000    0.00047981    0.00080724
     atom   12 type  1   force =     0.00000000   -0.00047981    0.00080726
     atom   13 type  1   force =     0.00000000    0.00100891   -0.00089668
     atom   14 type  1   force =     0.00000000   -0.00100890   -0.00089668
     atom   15 type  1   force =     0.00000000    0.00100889   -0.00089668
     atom   16 type  1   force =     0.00000000   -0.00100891   -0.00089668
     atom   17 type  1   force =     0.00097995   -0.00113722   -0.00108947
     atom   18 type  1   force =    -0.00097995    0.00113722   -0.00108947
     atom   19 type  1   force =     0.00097995    0.00113722   -0.00108947
     atom   20 type  1   force =    -0.00097995   -0.00113722   -0.00108947
     atom   21 type  1   force =     0.00097995   -0.00113722   -0.00108947
     atom   22 type  1   force =    -0.00097995    0.00113722   -0.00108947
     atom   23 type  1   force =     0.00097995    0.00113722   -0.00108947
     atom   24 type  1   force =    -0.00097995   -0.00113722   -0.00108947

     Total force =     0.008790     Total SCF correction =     0.000159


     Computing stress (Cartesian axis) and pressure

          total   stress  (Ry/bohr**3)                   (kbar)     P=        3.63
   0.00001129   0.00000000   0.00000000            1.66        0.00        0.00
   0.00000000   0.00003070   0.00000000            0.00        4.52        0.00
   0.00000000   0.00000000   0.00003206            0.00        0.00        4.72

     Energy error            =      4.3E-04 Ry
     Gradient error          =      2.7E-03 Ry/Bohr

     number of scf cycles    =   7
     number of bfgs steps    =   6

     energy             old  =    -278.7121425647 Ry
     energy             new  =    -278.7125697236 Ry

     CASE: energy            _new < energy            _old

     new trust radius        =       0.0069006651 bohr
     new conv_thr            =       0.0000000027 Ry


ATOMIC_POSITIONS (crystal)
O                0.0000000000        0.6639433442        0.0602133748
O                0.0000000000        0.3360566534        0.5602133809
O                0.5000000000        0.1639433473        0.0602133741
O                0.5000000000        0.8360566522        0.5602133771
O                0.5000000000        0.8326094619        0.9356769981
O                0.5000000000        0.1673905383        0.4356769944
O                0.0000000000        0.3326094637        0.9356769993
O                0.0000000000        0.6673905398        0.4356769928
H                0.0000000000        0.6624689407        0.1967220438
H                0.0000000000        0.3375310625        0.6967220492
H                0.5000000000        0.1624689438        0.1967220419
H                0.5000000000        0.8375310593        0.6967220455
H                0.0000000000        0.5412472699        0.0197355302
H                0.0000000000        0.4587527253        0.5197355313
H                0.5000000000        0.0412472724        0.0197355269
H                0.5000000000        0.9587527243        0.5197355277
H                0.6777235414        0.7694713701        0.9828260353
H                0.3222764599        0.2305286285        0.4828260356
H                0.6777235401        0.2305286285        0.4828260356
H                0.3222764586        0.7694713701        0.9828260353
H                0.1777235431        0.2694713725        0.9828260353
H                0.8222764587        0.7305286294        0.4828260328
H                0.1777235413        0.7305286294        0.4828260328
H                0.8222764569        0.2694713725        0.9828260353



     Writing config-only to output data dir ./iceIh_vdw/iceIh_vdw.save/ :
     XML data file
     NEW-OLD atomic charge density approx. for the potential

     total cpu time spent up to now is      724.9 secs

     per-process dynamical memory:    61.9 Mb

     Self-consistent Calculation

     iteration #  1     ecut=    90.00 Ry     beta= 0.70
     Davidson diagonalization with overlap
     ethr =  1.00E-06,  avg # of iterations =  3.0

     Threshold (ethr) on eigenvalues was too large:
     Diagonalizing with lowered threshold

     Davidson diagonalization with overlap
     ethr =  6.15E-08,  avg # of iterations =  2.0

     total cpu time spent up to now is      745.5 secs

     total energy              =    -278.71267701 Ry
     estimated scf accuracy    <       0.00004514 Ry

     iteration #  2     ecut=    90.00 Ry     beta= 0.70
     Davidson diagonalization with overlap
     ethr =  7.05E-08,  avg # of iterations =  2.0

     total cpu time spent up to now is      755.1 secs

     total energy              =    -278.71268333 Ry
     estimated scf accuracy    <       0.00000515 Ry

     iteration #  3     ecut=    90.00 Ry     beta= 0.70
     Davidson diagonalization with overlap
     ethr =  8.05E-09,  avg # of iterations =  2.8

     total cpu time spent up to now is      766.0 secs

     total energy              =    -278.71268464 Ry
     estimated scf accuracy    <       0.00000127 Ry

     iteration #  4     ecut=    90.00 Ry     beta= 0.70
     Davidson diagonalization with overlap
     ethr =  1.98E-09,  avg # of iterations =  2.6

     total cpu time spent up to now is      775.3 secs

     total energy              =    -278.71268485 Ry
     estimated scf accuracy    <       0.00000004 Ry

     iteration #  5     ecut=    90.00 Ry     beta= 0.70
     Davidson diagonalization with overlap
     ethr =  6.07E-11,  avg # of iterations =  4.8

     total cpu time spent up to now is      789.0 secs

     total energy              =    -278.71268486 Ry
     estimated scf accuracy    <       0.00000005 Ry

     iteration #  6     ecut=    90.00 Ry     beta= 0.70
     Davidson diagonalization with overlap
     ethr =  6.07E-11,  avg # of iterations =  3.0

     total cpu time spent up to now is      799.3 secs

     End of self-consistent calculation

     Number of k-points >= 100: set verbosity='high' to print the bands.

     highest occupied level (ev):    -3.8384

!    total energy              =    -278.71268487 Ry
     estimated scf accuracy    <          8.2E-10 Ry

     The total energy is the sum of the following terms:
     one-electron contribution =    -237.45579605 Ry
     hartree contribution      =     139.65028468 Ry
     xc contribution           =     -70.60047798 Ry
     ewald contribution        =    -110.30669553 Ry

     convergence has been achieved in   6 iterations

     Forces acting on atoms (cartesian axes, Ry/au):

     atom    1 type  2   force =     0.00000000    0.00029380    0.00019499
     atom    2 type  2   force =     0.00000000   -0.00029380    0.00019498
     atom    3 type  2   force =     0.00000000    0.00029378    0.00019498
     atom    4 type  2   force =     0.00000000   -0.00029380    0.00019498
     atom    5 type  2   force =     0.00000000   -0.00210026    0.00228785
     atom    6 type  2   force =     0.00000000    0.00210026    0.00228785
     atom    7 type  2   force =     0.00000000   -0.00210026    0.00228785
     atom    8 type  2   force =     0.00000000    0.00210026    0.00228785
     atom    9 type  1   force =     0.00000000    0.00084942    0.00041640
     atom   10 type  1   force =     0.00000000   -0.00084942    0.00041640
     atom   11 type  1   force =     0.00000000    0.00084942    0.00041641
     atom   12 type  1   force =     0.00000000   -0.00084942    0.00041640
     atom   13 type  1   force =     0.00000000    0.00084570   -0.00092988
     atom   14 type  1   force =     0.00000000   -0.00084570   -0.00092989
     atom   15 type  1   force =     0.00000000    0.00084572   -0.00092987
     atom   16 type  1   force =     0.00000000   -0.00084570   -0.00092988
     atom   17 type  1   force =     0.00123401   -0.00027300   -0.00098468
     atom   18 type  1   force =    -0.00123401    0.00027300   -0.00098468
     atom   19 type  1   force =     0.00123401    0.00027300   -0.00098468
     atom   20 type  1   force =    -0.00123401   -0.00027300   -0.00098468
     atom   21 type  1   force =     0.00123401   -0.00027301   -0.00098468
     atom   22 type  1   force =    -0.00123401    0.00027300   -0.00098468
     atom   23 type  1   force =     0.00123401    0.00027300   -0.00098468
     atom   24 type  1   force =    -0.00123401   -0.00027301   -0.00098468

     Total force =     0.008337     Total SCF correction =     0.000061


     Computing stress (Cartesian axis) and pressure

          total   stress  (Ry/bohr**3)                   (kbar)     P=        3.48
   0.00001478   0.00000000   0.00000000            2.17        0.00        0.00
   0.00000000   0.00002917   0.00000000            0.00        4.29        0.00
   0.00000000   0.00000000   0.00002698            0.00        0.00        3.97

     Energy error            =      1.2E-04 Ry
     Gradient error          =      2.3E-03 Ry/Bohr

     number of scf cycles    =   8
     number of bfgs steps    =   7

     energy             old  =    -278.7125697236 Ry
     energy             new  =    -278.7126848734 Ry

     CASE: energy            _new < energy            _old

     new trust radius        =       0.0075521360 bohr
     new conv_thr            =       0.0000000012 Ry


ATOMIC_POSITIONS (crystal)
O                0.0000000000        0.6642120941        0.0602088015
O                0.0000000000        0.3357879042        0.5602088064
O                0.5000000000        0.1642120955        0.0602087990
O                0.5000000000        0.8357879028        0.5602088030
O                0.5000000000        0.8326200824        0.9362238830
O                0.5000000000        0.1673799176        0.4362238806
O                0.0000000000        0.3326200837        0.9362238838
O                0.0000000000        0.6673799182        0.4362238798
H                0.0000000000        0.6625111820        0.1967340065
H                0.0000000000        0.3374888216        0.6967340117
H                0.5000000000        0.1625111846        0.1967340062
H                0.5000000000        0.8374888185        0.6967340083
H                0.0000000000        0.5415619938        0.0195933394
H                0.0000000000        0.4584380022        0.5195933406
H                0.5000000000        0.0415619970        0.0195933369
H                0.5000000000        0.9584380012        0.5195933373
H                0.6778289422        0.7690735714        0.9826199935
H                0.3221710593        0.2309264271        0.4826199934
H                0.6778289407        0.2309264271        0.4826199934
H                0.3221710578        0.7690735714        0.9826199935
H                0.1778289435        0.2690735737        0.9826199937
H                0.8221710583        0.7309264282        0.4826199904
H                0.1778289417        0.7309264282        0.4826199904
H                0.8221710565        0.2690735737        0.9826199937



     Writing config-only to output data dir ./iceIh_vdw/iceIh_vdw.save/ :
     XML data file
     NEW-OLD atomic charge density approx. for the potential

     total cpu time spent up to now is      809.2 secs

     per-process dynamical memory:    61.9 Mb

     Self-consistent Calculation

     iteration #  1     ecut=    90.00 Ry     beta= 0.70
     Davidson diagonalization with overlap
     ethr =  1.00E-06,  avg # of iterations =  3.1

     Threshold (ethr) on eigenvalues was too large:
     Diagonalizing with lowered threshold

     Davidson diagonalization with overlap
     ethr =  7.29E-08,  avg # of iterations =  2.0

     total cpu time spent up to now is      830.3 secs

     total energy              =    -278.71277529 Ry
     estimated scf accuracy    <       0.00005152 Ry

     iteration #  2     ecut=    90.00 Ry     beta= 0.70
     Davidson diagonalization with overlap
     ethr =  8.05E-08,  avg # of iterations =  2.0

     total cpu time spent up to now is      840.0 secs

     total energy              =    -278.71278272 Ry
     estimated scf accuracy    <       0.00001032 Ry

     iteration #  3     ecut=    90.00 Ry     beta= 0.70
     Davidson diagonalization with overlap
     ethr =  1.61E-08,  avg # of iterations =  2.9

     total cpu time spent up to now is      850.8 secs

     total energy              =    -278.71278565 Ry
     estimated scf accuracy    <       0.00000148 Ry

     iteration #  4     ecut=    90.00 Ry     beta= 0.70
     Davidson diagonalization with overlap
     ethr =  2.31E-09,  avg # of iterations =  2.0

     total cpu time spent up to now is      859.0 secs

     total energy              =    -278.71278575 Ry
     estimated scf accuracy    <       0.00000012 Ry

     iteration #  5     ecut=    90.00 Ry     beta= 0.70
     Davidson diagonalization with overlap
     ethr =  1.89E-10,  avg # of iterations =  4.9

     total cpu time spent up to now is      872.3 secs

     total energy              =    -278.71278579 Ry
     estimated scf accuracy    <       0.00000015 Ry

     iteration #  6     ecut=    90.00 Ry     beta= 0.70
     Davidson diagonalization with overlap
     ethr =  1.89E-10,  avg # of iterations =  3.0

     total cpu time spent up to now is      883.0 secs

     End of self-consistent calculation

     Number of k-points >= 100: set verbosity='high' to print the bands.

     highest occupied level (ev):    -3.8427

!    total energy              =    -278.71278583 Ry
     estimated scf accuracy    <          6.0E-10 Ry

     The total energy is the sum of the following terms:
     one-electron contribution =    -237.45149551 Ry
     hartree contribution      =     139.64898708 Ry
     xc contribution           =     -70.59985695 Ry
     ewald contribution        =    -110.31042045 Ry

     convergence has been achieved in   6 iterations

     Forces acting on atoms (cartesian axes, Ry/au):

     atom    1 type  2   force =     0.00000000   -0.00016486    0.00032898
     atom    2 type  2   force =     0.00000000    0.00016486    0.00032898
     atom    3 type  2   force =     0.00000000   -0.00016484    0.00032900
     atom    4 type  2   force =     0.00000000    0.00016486    0.00032898
     atom    5 type  2   force =     0.00000000   -0.00216576    0.00110796
     atom    6 type  2   force =     0.00000000    0.00216576    0.00110795
     atom    7 type  2   force =     0.00000000   -0.00216576    0.00110795
     atom    8 type  2   force =     0.00000000    0.00216576    0.00110795
     atom    9 type  1   force =     0.00000000    0.00092489    0.00026997
     atom   10 type  1   force =     0.00000000   -0.00092489    0.00026996
     atom   11 type  1   force =     0.00000000    0.00092489    0.00026995
     atom   12 type  1   force =     0.00000000   -0.00092489    0.00026996
     atom   13 type  1   force =     0.00000000    0.00050552   -0.00068223
     atom   14 type  1   force =     0.00000000   -0.00050551   -0.00068223
     atom   15 type  1   force =     0.00000000    0.00050550   -0.00068223
     atom   16 type  1   force =     0.00000000   -0.00050551   -0.00068223
     atom   17 type  1   force =     0.00101548    0.00010731   -0.00051233
     atom   18 type  1   force =    -0.00101549   -0.00010731   -0.00051233
     atom   19 type  1   force =     0.00101549   -0.00010731   -0.00051233
     atom   20 type  1   force =    -0.00101548    0.00010731   -0.00051233
     atom   21 type  1   force =     0.00101548    0.00010731   -0.00051233
     atom   22 type  1   force =    -0.00101549   -0.00010731   -0.00051233
     atom   23 type  1   force =     0.00101549   -0.00010731   -0.00051233
     atom   24 type  1   force =    -0.00101548    0.00010731   -0.00051233

     Total force =     0.006423     Total SCF correction =     0.000051


     Computing stress (Cartesian axis) and pressure

          total   stress  (Ry/bohr**3)                   (kbar)     P=        3.38
   0.00001687   0.00000000   0.00000000            2.48        0.00        0.00
   0.00000000   0.00002909   0.00000000            0.00        4.28        0.00
   0.00000000   0.00000000   0.00002290            0.00        0.00        3.37

     Energy error            =      1.0E-04 Ry
     Gradient error          =      2.2E-03 Ry/Bohr

     number of scf cycles    =   9
     number of bfgs steps    =   8

     energy             old  =    -278.7126848734 Ry
     energy             new  =    -278.7127858267 Ry

     CASE: energy            _new < energy            _old

     new trust radius        =       0.0062565991 bohr
     new conv_thr            =       0.0000000010 Ry


ATOMIC_POSITIONS (crystal)
O                0.0000000000        0.6643665417        0.0602362054
O                0.0000000000        0.3356334569        0.5602362108
O                0.5000000000        0.1643665453        0.0602362065
O                0.5000000000        0.8356334556        0.5602362075
O                0.5000000000        0.8324309430        0.9366299016
O                0.5000000000        0.1675690561        0.4366298993
O                0.0000000000        0.3324309446        0.9366299020
O                0.0000000000        0.6675690561        0.4366298992
H                0.0000000000        0.6626400088        0.1967898111
H                0.0000000000        0.3373599944        0.6967898151
H                0.5000000000        0.1626400107        0.1967898080
H                0.5000000000        0.8373599917        0.6967898120
H                0.0000000000        0.5417821195        0.0194235757
H                0.0000000000        0.4582178778        0.5194235765
H                0.5000000000        0.0417821201        0.0194235731
H                0.5000000000        0.9582178764        0.5194235739
H                0.6781695661        0.7688311764        0.9824602616
H                0.3218304340        0.2311688225        0.4824602617
H                0.6781695660        0.2311688225        0.4824602617
H                0.3218304339        0.7688311764        0.9824602616
H                0.1781695669        0.2688311782        0.9824602620
H                0.8218304338        0.7311688236        0.4824602587
H                0.1781695662        0.7311688236        0.4824602587
H                0.8218304331        0.2688311782        0.9824602620



     Writing config-only to output data dir ./iceIh_vdw/iceIh_vdw.save/ :
     XML data file
     NEW-OLD atomic charge density approx. for the potential

     total cpu time spent up to now is      892.8 secs

     per-process dynamical memory:    61.9 Mb

     Self-consistent Calculation

     iteration #  1     ecut=    90.00 Ry     beta= 0.70
     Davidson diagonalization with overlap
     ethr =  1.00E-06,  avg # of iterations =  3.0

     Threshold (ethr) on eigenvalues was too large:
     Diagonalizing with lowered threshold

     Davidson diagonalization with overlap
     ethr =  4.58E-08,  avg # of iterations =  2.1

     total cpu time spent up to now is      913.2 secs

     total energy              =    -278.71284052 Ry
     estimated scf accuracy    <       0.00003153 Ry

     iteration #  2     ecut=    90.00 Ry     beta= 0.70
     Davidson diagonalization with overlap
     ethr =  4.93E-08,  avg # of iterations =  3.0

     total cpu time spent up to now is      924.0 secs

     total energy              =    -278.71284504 Ry
     estimated scf accuracy    <       0.00001094 Ry

     iteration #  3     ecut=    90.00 Ry     beta= 0.70
     Davidson diagonalization with overlap
     ethr =  1.71E-08,  avg # of iterations =  3.1

     total cpu time spent up to now is      935.0 secs

     total energy              =    -278.71284813 Ry
     estimated scf accuracy    <       0.00000081 Ry

     iteration #  4     ecut=    90.00 Ry     beta= 0.70
     Davidson diagonalization with overlap
     ethr =  1.27E-09,  avg # of iterations =  2.0

     total cpu time spent up to now is      943.0 secs

     total energy              =    -278.71284813 Ry
     estimated scf accuracy    <       0.00000015 Ry

     iteration #  5     ecut=    90.00 Ry     beta= 0.70
     Davidson diagonalization with overlap
     ethr =  2.36E-10,  avg # of iterations =  3.1

     total cpu time spent up to now is      954.6 secs

     total energy              =    -278.71284819 Ry
     estimated scf accuracy    <       0.00000005 Ry

     iteration #  6     ecut=    90.00 Ry     beta= 0.70
     Davidson diagonalization with overlap
     ethr =  7.85E-11,  avg # of iterations =  2.1

     total cpu time spent up to now is      963.5 secs

     total energy              =    -278.71284820 Ry
     estimated scf accuracy    <          1.1E-09 Ry

     iteration #  7     ecut=    90.00 Ry     beta= 0.70
     Davidson diagonalization with overlap
     ethr =  1.64E-12,  avg # of iterations =  5.2

     total cpu time spent up to now is      978.8 secs

     End of self-consistent calculation

     Number of k-points >= 100: set verbosity='high' to print the bands.

     highest occupied level (ev):    -3.8462

!    total energy              =    -278.71284820 Ry
     estimated scf accuracy    <          7.1E-10 Ry

     The total energy is the sum of the following terms:
     one-electron contribution =    -237.44277373 Ry
     hartree contribution      =     139.64647678 Ry
     xc contribution           =     -70.59908066 Ry
     ewald contribution        =    -110.31747058 Ry

     convergence has been achieved in   7 iterations

     Forces acting on atoms (cartesian axes, Ry/au):

     atom    1 type  2   force =     0.00000000   -0.00022651    0.00032441
     atom    2 type  2   force =     0.00000000    0.00022652    0.00032439
     atom    3 type  2   force =     0.00000000   -0.00022655    0.00032435
     atom    4 type  2   force =     0.00000000    0.00022651    0.00032440
     atom    5 type  2   force =     0.00000000   -0.00132756   -0.00020461
     atom    6 type  2   force =     0.00000000    0.00132757   -0.00020460
     atom    7 type  2   force =     0.00000000   -0.00132757   -0.00020461
     atom    8 type  2   force =     0.00000000    0.00132757   -0.00020461
     atom    9 type  1   force =     0.00000000    0.00069478    0.00002438
     atom   10 type  1   force =     0.00000000   -0.00069478    0.00002440
     atom   11 type  1   force =     0.00000000    0.00069478    0.00002443
     atom   12 type  1   force =     0.00000000   -0.00069478    0.00002439
     atom   13 type  1   force =     0.00000000    0.00020994   -0.00023868
     atom   14 type  1   force =     0.00000000   -0.00020995   -0.00023868
     atom   15 type  1   force =     0.00000000    0.00020998   -0.00023866
     atom   16 type  1   force =     0.00000000   -0.00020994   -0.00023868
     atom   17 type  1   force =     0.00033651   -0.00004111    0.00004725
     atom   18 type  1   force =    -0.00033650    0.00004111    0.00004725
     atom   19 type  1   force =     0.00033650    0.00004111    0.00004725
     atom   20 type  1   force =    -0.00033651   -0.00004111    0.00004725
     atom   21 type  1   force =     0.00033650   -0.00004111    0.00004725
     atom   22 type  1   force =    -0.00033650    0.00004111    0.00004725
     atom   23 type  1   force =     0.00033650    0.00004111    0.00004725
     atom   24 type  1   force =    -0.00033650   -0.00004111    0.00004725

     Total force =     0.003334     Total SCF correction =     0.000020


     Computing stress (Cartesian axis) and pressure

          total   stress  (Ry/bohr**3)                   (kbar)     P=        3.19
   0.00001625   0.00000000   0.00000000            2.39        0.00        0.00
   0.00000000   0.00002962  -0.00000000            0.00        4.36       -0.00
   0.00000000  -0.00000000   0.00001914            0.00       -0.00        2.82

     Energy error            =      6.2E-05 Ry
     Gradient error          =      1.3E-03 Ry/Bohr

     number of scf cycles    =  10
     number of bfgs steps    =   9

     energy             old  =    -278.7127858267 Ry
     energy             new  =    -278.7128481958 Ry

     CASE: energy            _new < energy            _old

     new trust radius        =       0.0027745515 bohr
     new conv_thr            =       0.0000000010 Ry


ATOMIC_POSITIONS (crystal)
O                0.0000000000        0.6643675254        0.0602693876
O                0.0000000000        0.3356324741        0.5602693914
O                0.5000000000        0.1643675253        0.0602693835
O                0.5000000000        0.8356324723        0.5602693885
O                0.5000000000        0.8322468028        0.9366744943
O                0.5000000000        0.1677531974        0.4366744929
O                0.0000000000        0.3322468039        0.9366744948
O                0.0000000000        0.6677531969        0.4366744922
H                0.0000000000        0.6627447388        0.1968257831
H                0.0000000000        0.3372552641        0.6968257881
H                0.5000000000        0.1627447404        0.1968257837
H                0.5000000000        0.8372552616        0.6968257847
H                0.0000000000        0.5418227353        0.0193534838
H                0.0000000000        0.4581772619        0.5193534846
H                0.5000000000        0.0418227392        0.0193534827
H                0.5000000000        0.9581772610        0.5193534822
H                0.6783771179        0.7687999059        0.9824384341
H                0.3216228829        0.2312000925        0.4824384340
H                0.6783771171        0.2312000925        0.4824384340
H                0.3216228821        0.7687999059        0.9824384341
H                0.1783771178        0.2687999077        0.9824384346
H                0.8216228826        0.7312000937        0.4824384312
H                0.1783771174        0.7312000937        0.4824384312
H                0.8216228822        0.2687999077        0.9824384346



     Writing config-only to output data dir ./iceIh_vdw/iceIh_vdw.save/ :
     XML data file
     NEW-OLD atomic charge density approx. for the potential

     total cpu time spent up to now is      988.7 secs

     per-process dynamical memory:    61.9 Mb

     Self-consistent Calculation

     iteration #  1     ecut=    90.00 Ry     beta= 0.70
     Davidson diagonalization with overlap
     ethr =  1.00E-06,  avg # of iterations =  2.0

     Threshold (ethr) on eigenvalues was too large:
     Diagonalizing with lowered threshold

     Davidson diagonalization with overlap
     ethr =  4.93E-09,  avg # of iterations =  3.9

     total cpu time spent up to now is     1010.2 secs

     total energy              =    -278.71286388 Ry
     estimated scf accuracy    <       0.00000405 Ry

     iteration #  2     ecut=    90.00 Ry     beta= 0.70
     Davidson diagonalization with overlap
     ethr =  6.32E-09,  avg # of iterations =  2.1

     total cpu time spent up to now is     1019.9 secs

     total energy              =    -278.71286456 Ry
     estimated scf accuracy    <       0.00000080 Ry

     iteration #  3     ecut=    90.00 Ry     beta= 0.70
     Davidson diagonalization with overlap
     ethr =  1.26E-09,  avg # of iterations =  2.8

     total cpu time spent up to now is     1030.8 secs

     total energy              =    -278.71286479 Ry
     estimated scf accuracy    <       0.00000011 Ry

     iteration #  4     ecut=    90.00 Ry     beta= 0.70
     Davidson diagonalization with overlap
     ethr =  1.64E-10,  avg # of iterations =  2.0

     total cpu time spent up to now is     1039.2 secs

     total energy              =    -278.71286480 Ry
     estimated scf accuracy    <          8.0E-09 Ry

     iteration #  5     ecut=    90.00 Ry     beta= 0.70
     Davidson diagonalization with overlap
     ethr =  1.25E-11,  avg # of iterations =  4.9

     total cpu time spent up to now is     1052.5 secs

     total energy              =    -278.71286480 Ry
     estimated scf accuracy    <          6.0E-09 Ry

     iteration #  6     ecut=    90.00 Ry     beta= 0.70
     Davidson diagonalization with overlap
     ethr =  9.42E-12,  avg # of iterations =  2.5

     total cpu time spent up to now is     1061.8 secs

     End of self-consistent calculation

     Number of k-points >= 100: set verbosity='high' to print the bands.

     highest occupied level (ev):    -3.8467

!    total energy              =    -278.71286480 Ry
     estimated scf accuracy    <          2.9E-10 Ry

     The total energy is the sum of the following terms:
     one-electron contribution =    -237.44123101 Ry
     hartree contribution      =     139.64633526 Ry
     xc contribution           =     -70.59907581 Ry
     ewald contribution        =    -110.31889324 Ry

     convergence has been achieved in   6 iterations

     Forces acting on atoms (cartesian axes, Ry/au):

     atom    1 type  2   force =     0.00000000   -0.00000785    0.00009070
     atom    2 type  2   force =     0.00000000    0.00000784    0.00009071
     atom    3 type  2   force =     0.00000000   -0.00000780    0.00009077
     atom    4 type  2   force =     0.00000000    0.00000785    0.00009070
     atom    5 type  2   force =     0.00000000   -0.00065449   -0.00064118
     atom    6 type  2   force =     0.00000000    0.00065448   -0.00064119
     atom    7 type  2   force =     0.00000000   -0.00065448   -0.00064118
     atom    8 type  2   force =     0.00000000    0.00065448   -0.00064119
     atom    9 type  1   force =     0.00000000    0.00044320    0.00003351
     atom   10 type  1   force =     0.00000000   -0.00044320    0.00003350
     atom   11 type  1   force =     0.00000000    0.00044320    0.00003346
     atom   12 type  1   force =     0.00000000   -0.00044320    0.00003350
     atom   13 type  1   force =     0.00000000    0.00008598    0.00001570
     atom   14 type  1   force =     0.00000000   -0.00008596    0.00001570
     atom   15 type  1   force =     0.00000000    0.00008593    0.00001569
     atom   16 type  1   force =     0.00000000   -0.00008597    0.00001570
     atom   17 type  1   force =    -0.00006620   -0.00031800    0.00025063
     atom   18 type  1   force =     0.00006619    0.00031800    0.00025064
     atom   19 type  1   force =    -0.00006619    0.00031800    0.00025064
     atom   20 type  1   force =     0.00006620   -0.00031800    0.00025063
     atom   21 type  1   force =    -0.00006619   -0.00031800    0.00025064
     atom   22 type  1   force =     0.00006619    0.00031800    0.00025064
     atom   23 type  1   force =    -0.00006619    0.00031800    0.00025064
     atom   24 type  1   force =     0.00006619   -0.00031800    0.00025064

     Total force =     0.002358     Total SCF correction =     0.000026


     Computing stress (Cartesian axis) and pressure

          total   stress  (Ry/bohr**3)                   (kbar)     P=        3.10
   0.00001484   0.00000000   0.00000000            2.18        0.00        0.00
   0.00000000   0.00002978   0.00000000            0.00        4.38        0.00
   0.00000000   0.00000000   0.00001856            0.00        0.00        2.73

     Energy error            =      1.7E-05 Ry
     Gradient error          =      6.5E-04 Ry/Bohr

     bfgs converged in  11 scf cycles and  10 bfgs steps
     (criteria: energy <  1.0E-04 Ry, force <  1.0E-03 Ry/Bohr)

     End of BFGS Geometry Optimization

     Final energy             =    -278.7128648048 Ry

     File ./iceIh_vdw/iceIh_vdw.bfgs deleted, as requested
Begin final coordinates

ATOMIC_POSITIONS (crystal)
O                0.0000000000        0.6643675254        0.0602693876
O                0.0000000000        0.3356324741        0.5602693914
O                0.5000000000        0.1643675253        0.0602693835
O                0.5000000000        0.8356324723        0.5602693885
O                0.5000000000        0.8322468028        0.9366744943
O                0.5000000000        0.1677531974        0.4366744929
O                0.0000000000        0.3322468039        0.9366744948
O                0.0000000000        0.6677531969        0.4366744922
H                0.0000000000        0.6627447388        0.1968257831
H                0.0000000000        0.3372552641        0.6968257881
H                0.5000000000        0.1627447404        0.1968257837
H                0.5000000000        0.8372552616        0.6968257847
H                0.0000000000        0.5418227353        0.0193534838
H                0.0000000000        0.4581772619        0.5193534846
H                0.5000000000        0.0418227392        0.0193534827
H                0.5000000000        0.9581772610        0.5193534822
H                0.6783771179        0.7687999059        0.9824384341
H                0.3216228829        0.2312000925        0.4824384340
H                0.6783771171        0.2312000925        0.4824384340
H                0.3216228821        0.7687999059        0.9824384341
H                0.1783771178        0.2687999077        0.9824384346
H                0.8216228826        0.7312000937        0.4824384312
H                0.1783771174        0.7312000937        0.4824384312
H                0.8216228822        0.2687999077        0.9824384346
End final coordinates



     Writing all to output data dir ./iceIh_vdw/iceIh_vdw.save/ :
     XML data file, charge density, pseudopotentials, collected wavefunctions

     init_run     :      6.15s CPU      6.29s WALL (       1 calls)
     electrons    :    940.05s CPU    957.46s WALL (      11 calls)
     update_pot   :      0.68s CPU      0.77s WALL (      10 calls)
     forces       :      6.36s CPU      6.40s WALL (      11 calls)
     stress       :     97.93s CPU     98.05s WALL (      11 calls)

     Called by init_run:
     wfcinit      :      4.15s CPU      4.22s WALL (       1 calls)
     potinit      :      1.58s CPU      1.63s WALL (       1 calls)
     hinit0       :      0.34s CPU      0.34s WALL (       1 calls)

     Called by electrons:
     c_bands      :    834.75s CPU    849.40s WALL (      86 calls)
     sum_band     :     99.46s CPU    100.45s WALL (      86 calls)
     v_of_rho     :      7.49s CPU      8.16s WALL (      92 calls)
     newd         :      0.19s CPU      0.24s WALL (      92 calls)
     mix_rho      :      0.16s CPU      0.16s WALL (      86 calls)
     vdW_kernel   :      1.51s CPU      1.52s WALL (       1 calls)

     Called by c_bands:
     init_us_2    :     11.83s CPU     12.25s WALL (   22425 calls)
     cegterg      :    803.01s CPU    809.64s WALL (    9890 calls)

     Called by *egterg:
     cdiaghg      :     66.72s CPU     67.01s WALL (   38048 calls)
     h_psi        :    606.65s CPU    612.48s WALL (   39888 calls)
     s_psi        :     24.39s CPU     24.53s WALL (   39888 calls)
     g_psi        :      2.10s CPU      2.11s WALL (   29883 calls)

     Called by h_psi:
     h_psi:calbec :     40.51s CPU     40.83s WALL (   39888 calls)
     vloc_psi     :    536.75s CPU    542.01s WALL (   39888 calls)
     add_vuspsi   :     25.24s CPU     25.43s WALL (   39888 calls)

     General routines
     calbec       :     56.00s CPU     56.47s WALL (   56103 calls)
     fft          :      3.53s CPU      3.61s WALL (    6199 calls)
     ffts         :      0.05s CPU      0.05s WALL (      86 calls)
     fftw         :    561.81s CPU    567.20s WALL ( 2347470 calls)

     Parallel routines

     PWSCF        :  17m34.50s CPU  18m 2.26s WALL


   This run was terminated on:  23:55: 5   1Apr2026            

=------------------------------------------------------------------------------=
   JOB DONE.
=------------------------------------------------------------------------------=
