24
Lattice="4.501999442219337 0.0 0.0 0.0 7.797998771857516 0.0 0.0 0.0 7.327999034088702" Properties=species:S:1:pos:R:3:forces:R:3 energy=-3791.2670752377253 free_energy=-3791.2670752377253 stress="-0.04366941249411632 -0.0 -0.0 -0.0 0.013598832438719078 -0.0 -0.0 -0.0 -0.02222400507590273" pbc="T T T"
O        0.00000000       5.18410953       0.46239676       0.00000000      -1.59581123      -1.45481090
O        0.00000000       2.61388924       4.12639628       0.00000000       1.59580223      -1.45479985
O        2.25099972       1.28511015       0.46239676       0.00000000      -1.59580994      -1.45481270
O        2.25099972       6.51288907       4.12639628       0.00000000       1.59580788      -1.45479445
O        2.25099972       6.43724828       6.86560227       0.00000000       2.63018737      -1.81118534
O        2.25099972       1.36075094       3.20160276       0.00000000      -2.63017760      -1.81117814
O        0.00000000       2.53824890       6.86560227       0.00000000       2.63018583      -1.81118508
O        0.00000000       5.25975033       3.20160276       0.00000000      -2.63018094      -1.81117968
H        0.00000000       5.17475258       1.43848606       0.00000000      -0.09227278       0.71575553
H        0.00000000       2.62324664       5.10248603       0.00000000       0.09227278       0.71573444
H        2.25099972       1.27575274       1.43848606       0.00000000      -0.09227278       0.71575527
H        2.25099972       6.52224603       5.10248603       0.00000000       0.09227304       0.71573676
H        0.00000000       4.18206710       0.13410241       0.00000000       1.65512323       0.60707268
H        0.00000000       3.61593212       3.79810193       0.00000000      -1.65512323       0.60707165
H        2.25099972       0.28306727       0.13410241       0.00000000       1.65512375       0.60707294
H        2.25099972       7.51493151       3.79810193       0.00000000      -1.65512092       0.60707114
H        3.04605282       6.04188989       7.19389663       1.60695542      -1.31274614       0.97158543
H        1.45594662       1.75610933       3.52989711      -1.60695233       1.31274485       0.97158363
H        3.04605282       1.75610933       3.52989711       1.60695233       1.31274485       0.97158363
H        1.45594662       6.04188989       7.19389663      -1.60695542      -1.31274614       0.97158543
H        0.79505310       2.14289006       7.19389663       1.60695542      -1.31274640       0.97158543
H        3.70694634       5.65510871       3.52989711      -1.60695207       1.31274460       0.97158337
H        0.79505310       5.65510871       3.52989711       1.60695207       1.31274460       0.97158337
H        3.70694634       2.14289006       7.19389663      -1.60695542      -1.31274640       0.97158543
24
Lattice="4.501999442219337 0.0 0.0 0.0 7.797998771857516 0.0 0.0 0.0 7.327999034088702" Properties=species:S:1:pos:R:3:forces:R:3 energy=-3791.8325691557557 free_energy=-3791.8325691557557 stress="0.026570563226256932 -0.0 -0.0 -0.0 -0.007782303946430552 -0.0 -0.0 -0.0 0.014931997295988684" pbc="T T T"
O        0.00000000       5.15126495       0.43245426       0.00000000       1.11982341       0.96657435
O        0.00000000       2.64673363       4.09645383       0.00000000      -1.11981261       0.96656304
O        2.25099972       1.25226560       0.43245422       0.00000000       1.11982341       0.96657538
O        2.25099972       6.54573313       4.09645394       0.00000000      -1.11981519       0.96656021
O        2.25099972       6.49138184       6.82832514       0.00000000      -0.88201051       0.83576254
O        2.25099972       1.30661713       3.16432555       0.00000000       0.88200486       0.83575894
O        0.00000000       2.59238242       6.82832514       0.00000000      -0.88200923       0.83576151
O        0.00000000       5.20561645       3.16432552       0.00000000       0.88200563       0.83575997
H        0.00000000       5.17285307       1.45321769       0.00000000      -0.10869724      -0.68112354
H        0.00000000       2.62514570       5.11721699       0.00000000       0.10869647      -0.68111480
H        2.25099972       1.27385369       1.45321768       0.00000000      -0.10869699      -0.68112431
H        2.25099972       6.52414509       5.11721704       0.00000000       0.10869724      -0.68111300
H        0.00000000       4.21613205       0.14659699       0.00000000      -0.76662969      -0.23976025
H        0.00000000       3.58186672       3.81059645       0.00000000       0.76662069      -0.23975794
H        2.25099972       0.31713267       0.14659699       0.00000000      -0.76662943      -0.23976051
H        2.25099972       7.48086616       3.81059645       0.00000000       0.76662197      -0.23975768
H        3.07912663       6.01487090       7.21389357      -0.90361138       0.30768983      -0.44072616
H        1.42287288       1.78312784       3.54989402       0.90360829      -0.30768751      -0.44072462
H        3.07912657       1.78312784       3.54989402      -0.90360829      -0.30768751      -0.44072462
H        1.42287281       6.01487090       7.21389357       0.90361138       0.30768983      -0.44072616
H        0.82812691       2.11587151       7.21389357      -0.90361112       0.30768957      -0.44072616
H        3.67387260       5.68212722       3.54989401       0.90360881      -0.30768829      -0.44072513
H        0.82812684       5.68212722       3.54989401      -0.90360881      -0.30768829      -0.44072513
H        3.67387253       2.11587151       7.21389357       0.90361112       0.30768957      -0.44072616
24
Lattice="4.501999442219337 0.0 0.0 0.0 7.797998771857516 0.0 0.0 0.0 7.327999034088702" Properties=species:S:1:pos:R:3:forces:R:3 energy=-3792.0364939875826 free_energy=-3792.0364939875826 stress="0.010219094257169896 -0.0 -0.0 -0.0 0.004931424551236255 0.0 -0.0 0.0 -0.0005637487757324633" pbc="T T T"
O        0.00000000       5.16661382       0.44568414       0.00000000      -0.13853927      -0.13921675
O        0.00000000       2.63138492       4.10968356       0.00000000       0.13853618      -0.13921418
O        2.25099972       1.26761446       0.44568412       0.00000000      -0.13853978      -0.13921624
O        2.25099972       6.53038438       4.10968363       0.00000000       0.13853592      -0.13921521
O        2.25099972       6.47962034       6.83963249       0.00000000      -0.08473302       0.27543585
O        2.25099972       1.31837856       3.17563286       0.00000000       0.08473173       0.27543585
O        0.00000000       2.58062094       6.83963248       0.00000000      -0.08473302       0.27543585
O        0.00000000       5.21737789       3.17563284       0.00000000       0.08473250       0.27543637
H        0.00000000       5.17130422       1.44382103       0.00000000      -0.06214074      -0.01262309
H        0.00000000       2.62669454       5.10782045       0.00000000       0.06214074      -0.01262283
H        2.25099972       1.27230484       1.44382101       0.00000000      -0.06214074      -0.01262309
H        2.25099972       6.52569395       5.10782052       0.00000000       0.06214125      -0.01262309
H        0.00000000       4.20575853       0.14337406       0.00000000       0.32177407       0.10408134
H        0.00000000       3.59224012       3.80737356       0.00000000      -0.32177048       0.10408006
H        2.25099972       0.30675915       0.14337406       0.00000000       0.32177407       0.10408134
H        2.25099972       7.49123957       3.80737355       0.00000000      -0.32177099       0.10408057
H        3.06681748       6.01887958       7.20793475      -0.35863984      -0.02903007      -0.11383893
H        1.43518199       1.77911919       3.54393522       0.35863932       0.02903058      -0.11383893
H        3.06681746       1.77911919       3.54393522      -0.35863932       0.02903058      -0.11383893
H        1.43518196       6.01887958       7.20793475       0.35863984      -0.02903007      -0.11383893
H        0.81581776       2.11988019       7.20793475      -0.35864009      -0.02903007      -0.11383919
H        3.68618172       5.67811857       3.54393521       0.35863932       0.02903033      -0.11383919
H        0.81581772       5.67811857       3.54393521      -0.35863932       0.02903033      -0.11383919
H        3.68618168       2.11988019       7.20793475       0.35864009      -0.02903007      -0.11383919
24
Lattice="4.501999442219337 0.0 0.0 0.0 7.797998771857516 0.0 0.0 0.0 7.327999034088702" Properties=species:S:1:pos:R:3:forces:R:3 energy=-3792.0596220311854 free_energy=-3792.0596220311854 stress="0.00048295090559491156 -0.0 -0.0 -0.0 -0.0029252501620254533 -0.0 -0.0 -0.0 -0.001500269543235904" pbc="T T T"
O        0.00000000       5.16484290       0.44371858       0.00000000       0.11748116       0.03032153
O        0.00000000       2.63315578       4.10771804       0.00000000      -0.11747987       0.03032102
O        2.25099972       1.26584353       0.44371857       0.00000000       0.11748116       0.03032128
O        2.25099972       6.53215524       4.10771809       0.00000000      -0.11748013       0.03032153
O        2.25099972       6.47677025       6.84667308       0.00000000       0.27269429      -0.06342166
O        2.25099972       1.32122861       3.18267344       0.00000000      -0.27269429      -0.06342089
O        0.00000000       2.57777085       6.84667307       0.00000000       0.27269429      -0.06342166
O        0.00000000       5.22022796       3.18267343       0.00000000      -0.27269454      -0.06342089
H        0.00000000       5.16979561       1.44274612       0.00000000      -0.05824911      -0.07184614
H        0.00000000       2.62820315       5.10674555       0.00000000       0.05824886      -0.07184511
H        2.25099972       1.27079623       1.44274610       0.00000000      -0.05824911      -0.07184562
H        2.25099972       6.52720257       5.10674562       0.00000000       0.05824911      -0.07184588
H        0.00000000       4.21201029       0.14540845       0.00000000       0.05420194       0.02456355
H        0.00000000       3.58598842       3.80940792       0.00000000      -0.05420271       0.02456355
H        2.25099972       0.31301092       0.14540845       0.00000000       0.05420168       0.02456355
H        2.25099972       7.48498787       3.80940793       0.00000000      -0.05420271       0.02456381
H        3.05784771       6.01856468       7.20491749      -0.01372043      -0.20550570       0.04019123
H        1.44415174       1.77943411       3.54091796       0.01372043       0.20550545       0.04019071
H        3.05784771       1.77943411       3.54091796      -0.01372043       0.20550545       0.04019071
H        1.44415173       6.01856468       7.20491749       0.01372043      -0.20550570       0.04019123
H        0.80684799       2.11956529       7.20491749      -0.01372043      -0.20550570       0.04019123
H        3.69515147       5.67843347       3.54091794       0.01372018       0.20550570       0.04019097
H        0.80684797       5.67843347       3.54091794      -0.01372018       0.20550570       0.04019097
H        3.69515145       2.11956529       7.20491749       0.01372043      -0.20550570       0.04019123
24
Lattice="4.501999442219337 0.0 0.0 0.0 7.797998771857516 0.0 0.0 0.0 7.327999034088702" Properties=species:S:1:pos:R:3:forces:R:3 energy=-3792.0713113614092 free_energy=-3792.0713113614092 stress="0.0007795158153043345 -0.0 -0.0 -0.0 -0.002638784986083224 -0.0 -0.0 -0.0 -0.0026626570840784097" pbc="T T T"
O        0.00000000       5.16702373       0.44410521       0.00000000       0.10781638      -0.04081138
O        0.00000000       2.63097497       4.10810466       0.00000000      -0.10781587      -0.04081086
O        2.25099972       1.26802436       0.44410520       0.00000000       0.10781638      -0.04081138
O        2.25099972       6.52997442       4.10810471       0.00000000      -0.10781587      -0.04081086
O        2.25099972       6.48122464       6.84742929       0.00000000       0.15632204       0.00744540
O        2.25099972       1.31677421       3.18342966       0.00000000      -0.15632204       0.00744591
O        0.00000000       2.58222524       6.84742927       0.00000000       0.15632204       0.00744514
O        0.00000000       5.21577355       3.18342966       0.00000000      -0.15632204       0.00744591
H        0.00000000       5.16821236       1.44082317       0.00000000      -0.03811686       0.01524176
H        0.00000000       2.62978639       5.10482262       0.00000000       0.03811660       0.01524176
H        2.25099972       1.26921299       1.44082315       0.00000000      -0.03811660       0.01524201
H        2.25099972       6.52878582       5.10482268       0.00000000       0.03811686       0.01524150
H        0.00000000       4.21449041       0.14636480       0.00000000       0.03194107       0.00599016
H        0.00000000       3.58350829       3.81036426       0.00000000      -0.03194107       0.00599016
H        2.25099972       0.31549105       0.14636480       0.00000000       0.03194081       0.00599016
H        2.25099972       7.48250774       3.81036428       0.00000000      -0.03194133       0.00599041
H        3.05504116       6.01448538       7.20482937      -0.01573824      -0.14037272       0.00606703
H        1.44695828       1.78351341       3.54082983       0.01573824       0.14037246       0.00606652
H        3.05504116       1.78351341       3.54082983      -0.01573824       0.14037246       0.00606652
H        1.44695828       6.01448538       7.20482937       0.01573824      -0.14037272       0.00606703
H        0.80404144       2.11548599       7.20482937      -0.01573824      -0.14037272       0.00606678
H        3.69795801       5.68251277       3.54082982       0.01573824       0.14037246       0.00606678
H        0.80404143       5.68251277       3.54082982      -0.01573824       0.14037246       0.00606678
H        3.69795800       2.11548599       7.20482937       0.01573824      -0.14037272       0.00606678
24
Lattice="4.501999442219337 0.0 0.0 0.0 7.797998771857516 0.0 0.0 0.0 7.327999034088702" Properties=species:S:1:pos:R:3:forces:R:3 energy=-3792.079292052126 free_energy=-3792.079292052126 stress="0.0003029920130158191 -0.0 -0.0 -0.0 -0.0022696856247730445 -0.0 -0.0 -0.0 -0.0021870514394050937" pbc="T T T"
O        0.00000000       5.17019657       0.44310957       0.00000000       0.06625373      -0.00697823
O        0.00000000       2.62780214       4.10710904       0.00000000      -0.06625321      -0.00697823
O        2.25099972       1.27119720       0.44310956       0.00000000       0.06625373      -0.00697823
O        2.25099972       6.52680158       4.10710908       0.00000000      -0.06625321      -0.00697823
O        2.25099972       6.48541272       6.84937995       0.00000000       0.06850344       0.04566588
O        2.25099972       1.31258612       3.18538035       0.00000000      -0.06850344       0.04566613
O        0.00000000       2.58641332       6.84937994       0.00000000       0.06850344       0.04566562
O        0.00000000       5.21158547       3.18538035       0.00000000      -0.06850344       0.04566613
H        0.00000000       5.16654516       1.44028690       0.00000000      -0.01152343       0.00195275
H        0.00000000       2.63145358       5.10428637       0.00000000       0.01152343       0.00195301
H        2.25099972       1.26754579       1.44028689       0.00000000      -0.01152343       0.00195301
H        2.25099972       6.53045302       5.10428641       0.00000000       0.01152343       0.00195275
H        0.00000000       4.21690299       0.14708879       0.00000000       0.03400798      -0.01048444
H        0.00000000       3.58109572       3.81108824       0.00000000      -0.03400824      -0.01048419
H        2.25099972       0.31790362       0.14708879       0.00000000       0.03400798      -0.01048444
H        2.25099972       7.48009516       3.81108828       0.00000000      -0.03400824      -0.01048444
H        3.05197075       6.01002203       7.20425799       0.00511367      -0.08749567      -0.01507798
H        1.45002870       1.78797676       3.54025845      -0.00511367       0.08749567      -0.01507823
H        3.05197075       1.78797676       3.54025845       0.00511367       0.08749567      -0.01507823
H        1.45002870       6.01002203       7.20425799      -0.00511367      -0.08749567      -0.01507798
H        0.80097102       2.11102264       7.20425799       0.00511367      -0.08749567      -0.01507823
H        3.70102842       5.68697612       3.54025843      -0.00511367       0.08749567      -0.01507823
H        0.80097102       5.68697612       3.54025843       0.00511367       0.08749567      -0.01507823
H        3.70102842       2.11102264       7.20425799      -0.00511367      -0.08749567      -0.01507823
24
Lattice="4.501999442219337 0.0 0.0 0.0 7.797998771857516 0.0 0.0 0.0 7.327999034088702" Properties=species:S:1:pos:R:3:forces:R:3 energy=-3792.084568475515 free_energy=-3792.084568475515 stress="-0.0004296977639133434 -0.0 -0.0 -0.0 -0.0018565146979332913 -0.0 -0.0 -0.0 -0.0020704454222747635" pbc="T T T"
O        0.00000000       5.17495746       0.44242492       0.00000000       0.01916783      -0.00384946
O        0.00000000       2.62304127       4.10642439       0.00000000      -0.01916835      -0.00384868
O        2.25099972       1.27595809       0.44242491       0.00000000       0.01916809      -0.00384920
O        2.25099972       6.52204070       4.10642443       0.00000000      -0.01916809      -0.00384894
O        2.25099972       6.49084683       6.85401960       0.00000000      -0.04010690       0.07233619
O        2.25099972       1.30715199       3.19002002       0.00000000       0.04010664       0.07233619
O        0.00000000       2.59184743       6.85401958       0.00000000      -0.04010664       0.07233619
O        0.00000000       5.20615134       3.19002003       0.00000000       0.04010664       0.07233619
H        0.00000000       5.16453633       1.43908609       0.00000000       0.02070895       0.02327800
H        0.00000000       2.63346240       5.10308559       0.00000000      -0.02070869       0.02327723
H        2.25099972       1.26553697       1.43908609       0.00000000       0.02070895       0.02327774
H        2.25099972       6.53246185       5.10308562       0.00000000      -0.02070895       0.02327748
H        0.00000000       4.22133837       0.14758108       0.00000000       0.02223310      -0.02885755
H        0.00000000       3.57666034       3.81158052       0.00000000      -0.02223259      -0.02885755
H        2.25099972       0.32233900       0.14758107       0.00000000       0.02223284      -0.02885755
H        2.25099972       7.47565977       3.81158057       0.00000000      -0.02223284      -0.02885755
H        3.04812505       6.00299741       7.20263474       0.03482328      -0.01779332      -0.03145359
H        1.45387439       1.79500138       3.53863519      -0.03482302       0.01779332      -0.03145359
H        3.04812505       1.79500138       3.53863519       0.03482302       0.01779332      -0.03145359
H        1.45387439       6.00299741       7.20263474      -0.03482328      -0.01779332      -0.03145359
H        0.79712533       2.10399802       7.20263474       0.03482328      -0.01779332      -0.03145359
H        3.70487411       5.69400075       3.53863518      -0.03482302       0.01779332      -0.03145359
H        0.79712533       5.69400075       3.53863518       0.03482302       0.01779332      -0.03145359
H        3.70487412       2.10399802       7.20263474      -0.03482328      -0.01779332      -0.03145359
24
Lattice="4.501999442219337 0.0 0.0 0.0 7.797998771857516 0.0 0.0 0.0 7.327999034088702" Properties=species:S:1:pos:R:3:forces:R:3 energy=-3792.0857789739257 free_energy=-3792.0857789739257 stress="-0.000493968796977305 -0.0 -0.0 -0.0 -0.0017353178927269636 -0.0 -0.0 -0.0 -0.0016958371152733874" pbc="T T T"
O        0.00000000       5.17637096       0.44228870       0.00000000       0.00671289       0.00671701
O        0.00000000       2.62162776       4.10628820       0.00000000      -0.00671264       0.00671649
O        2.25099972       1.27737160       0.44228870       0.00000000       0.00671264       0.00671701
O        2.25099972       6.52062719       4.10628822       0.00000000      -0.00671264       0.00671675
O        2.25099972       6.49136944       6.85634015       0.00000000      -0.04968503       0.05981774
O        2.25099972       1.30662937       3.19234058       0.00000000       0.04968477       0.05981749
O        0.00000000       2.59237004       6.85634012       0.00000000      -0.04968503       0.05981774
O        0.00000000       5.20562872       3.19234058       0.00000000       0.04968477       0.05981749
H        0.00000000       5.16454303       1.43923166       0.00000000       0.02440748       0.01339313
H        0.00000000       2.63345571       5.10323114       0.00000000      -0.02440748       0.01339339
H        2.25099972       1.26554366       1.43923165       0.00000000       0.02440748       0.01339313
H        2.25099972       6.53245515       5.10323117       0.00000000      -0.02440774       0.01339339
H        0.00000000       4.22276715       0.14708657       0.00000000       0.02093007      -0.02637669
H        0.00000000       3.57523158       3.81108602       0.00000000      -0.02093032      -0.02637618
H        2.25099972       0.32376777       0.14708656       0.00000000       0.02093032      -0.02637643
H        2.25099972       7.47423100       3.81108606       0.00000000      -0.02093032      -0.02637643
H        3.04816559       6.00101135       7.20171705       0.03257382      -0.00768040      -0.02677573
H        1.45383385       1.79698744       3.53771749      -0.03257382       0.00768040      -0.02677547
H        3.04816560       1.79698744       3.53771749       0.03257382       0.00768040      -0.02677547
H        1.45383385       6.00101135       7.20171705      -0.03257382      -0.00768040      -0.02677573
H        0.79716587       2.10201196       7.20171704       0.03257382      -0.00768040      -0.02677573
H        3.70483357       5.69598681       3.53771748      -0.03257382       0.00768040      -0.02677547
H        0.79716588       5.69598681       3.53771748       0.03257382       0.00768040      -0.02677547
H        3.70483357       2.10201196       7.20171704      -0.03257382      -0.00768040      -0.02677573
24
Lattice="4.501999442219337 0.0 0.0 0.0 7.797998771857516 0.0 0.0 0.0 7.327999034088702" Properties=species:S:1:pos:R:3:forces:R:3 energy=-3792.0870237586814 free_energy=-3792.0870237586814 stress="-0.0005031503731292995 -0.0 -0.0 -0.0 -0.0017316452622661658 -0.0 -0.0 -0.0 -0.0014451800863239368" pbc="T T T"
O        0.00000000       5.17757629       0.44240738       0.00000000       0.00122102       0.00742252
O        0.00000000       2.62042245       4.10640686       0.00000000      -0.00122153       0.00742303
O        2.25099972       1.27857692       0.44240737       0.00000000       0.00122102       0.00742277
O        2.25099972       6.51942187       4.10640689       0.00000000      -0.00122127       0.00742277
O        2.25099972       6.49112530       6.85894527       0.00000000      -0.04532701       0.03701540
O        2.25099972       1.30687349       3.19494571       0.00000000       0.04532701       0.03701540
O        0.00000000       2.59212591       6.85894525       0.00000000      -0.04532701       0.03701540
O        0.00000000       5.20587286       3.19494572       0.00000000       0.04532701       0.03701540
H        0.00000000       5.16498224       1.43946736       0.00000000       0.02298309       0.00946680
H        0.00000000       2.63301650       5.10346686       0.00000000      -0.02298283       0.00946654
H        2.25099972       1.26598288       1.43946736       0.00000000       0.02298309       0.00946680
H        2.25099972       6.53201594       5.10346688       0.00000000      -0.02298309       0.00946680
H        0.00000000       4.22426108       0.14626179       0.00000000       0.01606554      -0.01947482
H        0.00000000       3.57373764       3.81026125       0.00000000      -0.01606502      -0.01947482
H        2.25099972       0.32526171       0.14626179       0.00000000       0.01606528      -0.01947482
H        2.25099972       7.47273707       3.81026129       0.00000000      -0.01606502      -0.01947482
H        3.04886925       5.99920607       7.20064968       0.02373745      -0.00437242      -0.01721508
H        1.45313019       1.79879272       3.53665012      -0.02373745       0.00437242      -0.01721508
H        3.04886925       1.79879272       3.53665012       0.02373745       0.00437242      -0.01721508
H        1.45313019       5.99920607       7.20064968      -0.02373745      -0.00437242      -0.01721508
H        0.79786953       2.10020668       7.20064967       0.02373745      -0.00437242      -0.01721508
H        3.70412991       5.69779209       3.53665012      -0.02373745       0.00437242      -0.01721508
H        0.79786953       5.69779209       3.53665012       0.02373745       0.00437242      -0.01721508
H        3.70412991       2.10020668       7.20064967      -0.02373745      -0.00437242      -0.01721508
24
Lattice="4.501999442219337 0.0 0.0 0.0 7.797998771857516 0.0 0.0 0.0 7.327999034088702" Properties=species:S:1:pos:R:3:forces:R:3 energy=-3792.0881509902574 free_energy=-3792.0881509902574 stress="-0.00039205330169016586 -0.0 -0.0 -0.0 -0.0017371542079573626 -0.0 -0.0 -0.0 -0.0010274183714081863" pbc="T T T"
O        0.00000000       5.17911646       0.44274460       0.00000000      -0.00082018       0.00547002
O        0.00000000       2.61888226       4.10674412       0.00000000       0.00082147       0.00546797
O        2.25099972       1.28011709       0.44274460       0.00000000      -0.00082070       0.00546951
O        2.25099972       6.51788170       4.10674413       0.00000000       0.00082095       0.00546899
O        2.25099972       6.48986734       6.86266302       0.00000000      -0.02816232      -0.00130021
O        2.25099972       1.30813145       3.19866347       0.00000000       0.02816206      -0.00130021
O        0.00000000       2.59086794       6.86266300       0.00000000      -0.02816232      -0.00129995
O        0.00000000       5.20713082       3.19866348       0.00000000       0.02816206      -0.00130021
H        0.00000000       5.16615149       1.44002725       0.00000000       0.01594752       0.00190056
H        0.00000000       2.63184726       5.10402673       0.00000000      -0.01594752       0.00190210
H        2.25099972       1.26715213       1.44002724       0.00000000       0.01594752       0.00190082
H        2.25099972       6.53084669       5.10402676       0.00000000      -0.01594778       0.00190133
H        0.00000000       4.22640976       0.14477302       0.00000000       0.00788609      -0.00500517
H        0.00000000       3.57158898       3.80877249       0.00000000      -0.00788737      -0.00500465
H        2.25099972       0.32741038       0.14477302       0.00000000       0.00788660      -0.00500517
H        2.25099972       7.47058840       3.80877251       0.00000000      -0.00788660      -0.00500491
H        3.05048578       5.99675364       7.19908663       0.00450586      -0.00550627      -0.00053273
H        1.45151366       1.80124515       3.53508707      -0.00450586       0.00550627      -0.00053248
H        3.05048579       1.80124515       3.53508707       0.00450586       0.00550627      -0.00053248
H        1.45151366       5.99675364       7.19908663      -0.00450586      -0.00550627      -0.00053273
H        0.79948606       2.09775425       7.19908662       0.00450586      -0.00550627      -0.00053273
H        3.70251338       5.70024452       3.53508707      -0.00450612       0.00550627      -0.00053248
H        0.79948606       5.70024452       3.53508707       0.00450612       0.00550627      -0.00053248
H        3.70251338       2.09775425       7.19908662      -0.00450586      -0.00550627      -0.00053273
24
Lattice="4.501999442219337 0.0 0.0 0.0 7.797998771857516 0.0 0.0 0.0 7.327999034088702" Properties=species:S:1:pos:R:3:forces:R:3 energy=-3792.0883221498625 free_energy=-3792.0883221498625 stress="-0.0003654267308493818 -0.0 -0.0 -0.0 -0.0017509265721853543 0.0 -0.0 0.0 -0.0009181576151994518" pbc="T T T"
O        0.00000000       5.17957414       0.44295653       0.00000000       0.00122513       0.00183140
O        0.00000000       2.61842461       4.10695600       0.00000000      -0.00122667       0.00183371
O        2.25099972       1.28057477       0.44295652       0.00000000       0.00122564       0.00183217
O        2.25099972       6.51742403       4.10695603       0.00000000      -0.00122590       0.00183268
O        2.25099972       6.48882631       6.86364949       0.00000000      -0.01665843      -0.01519291
O        2.25099972       1.30917248       3.19964994       0.00000000       0.01665869      -0.01519265
O        0.00000000       2.58982691       6.86364947       0.00000000      -0.01665843      -0.01519291
O        0.00000000       5.20817184       3.19964995       0.00000000       0.01665869      -0.01519265
H        0.00000000       5.16691543       1.44029082       0.00000000       0.01105651       0.00079241
H        0.00000000       2.63108332       5.10429033       0.00000000      -0.01105651       0.00079087
H        2.25099972       1.26791607       1.44029082       0.00000000       0.01105651       0.00079216
H        2.25099972       6.53008275       5.10429035       0.00000000      -0.01105651       0.00079139
H        0.00000000       4.22718694       0.14419028       0.00000000       0.00362860       0.00154343