36
Lattice="6.0239956543349376 -3.4779554256071186 1.9342599260963327 0.0 6.955910851214237 1.9342599260963327 -6.0239956543349376 -3.4779554256071186 1.9342599260963327" Properties=species:S:1:pos:R:3:forces:R:3 energy=-5683.576318636164 free_energy=-5683.576318636164 stress="-0.1696149288862555 -0.0 0.0 -0.0 -0.1696149288862555 -0.0 0.0 -0.0 -0.16583028319640336" pbc="T T T"
O       -3.52442737      -3.72090879       2.23959704       1.01433928      -3.60576881      -2.04543186
O        3.52442737       3.72090952       3.56318418      -1.01433928       3.60576881       2.04543186
O        4.98461532      -1.19178898       2.23959704       2.61551794       2.68132790      -2.04543186
O       -4.98461532       1.19178898       3.56318418      -2.61551794      -2.68132790       2.04543186
O       -1.46018795       4.91269777       2.23959704      -3.62985696       0.92444091      -2.04543186
O        1.46018795      -4.91269777       3.56318418       3.62985696      -0.92444091       2.04543186
O        0.87261071       2.41951255       2.98718757       2.87552229      -2.19768565       1.72206062
O       -0.87261071      -2.41951255       2.81559293      -2.87552229       2.19768565      -1.72206062
O       -2.53166481      -0.45405353       2.98718757       0.46549051       3.58911809       1.72206062
O        2.53166481       0.45405353       2.81559293      -0.46549051      -3.58911809      -1.72206062
O        1.65905409      -1.96545974       2.98718757      -3.34101280      -1.39143244       1.72206062
O       -1.65905409       1.96545974       2.81559293       3.34101280       1.39143244      -1.72206062
H       -3.92068175      -2.96207336       1.89311262      -1.58017172       2.91778068      -1.60657875
H        3.92068175       2.96207336       3.90966788       1.58017172      -2.91778068       1.60657875
H        4.52557216      -1.91437360       1.89311262      -1.73678636      -2.82735936      -1.60657875
H       -4.52557216       1.91437360       3.90966788       1.73678636       2.82735936       1.60657875
H       -0.60488969       4.87644696       1.89311262       3.31695833      -0.09042133      -1.60657875
H        0.60489041      -4.87644696       3.90966788      -3.31695833       0.09042133       1.60657875
H       -3.38013815      -3.50854083       3.12430171       0.69492265       0.67680048       3.62063519
H        3.38013815       3.50854083       2.67847879      -0.69492265      -0.67680048      -3.62063519
H        4.72855433      -1.17301523       3.12430171      -0.93358787       0.26342057       3.62063519
H       -4.72855433       1.17301523       2.67847879       0.93358787      -0.26342057      -3.62063519
H       -1.34841617       4.68155606       3.12430171       0.23866496      -0.94022106       3.62063519
H        1.34841617      -4.68155606       2.67847879      -0.23866496       0.94022106      -3.62063519
H        1.96297828      -1.09468647       2.97368286       1.07438559       3.52769058       0.05719805
H       -1.96297828       1.09468575       2.82909836      -1.07438559      -3.52769058      -0.05719805
H       -0.03346323       2.24733165       2.97368286      -3.59226255      -0.83339995       0.05719805
H        0.03346323      -2.24733165       2.82909836       3.59226255       0.83339995      -0.05719805
H       -1.92951505      -1.15264590       2.97368286       2.51787695      -2.69429063       0.05719805
H        1.92951505       1.15264590       2.82909836      -2.51787695       2.69429063      -0.05719805
H        2.26427589      -2.46648915       2.50766750       2.37749447      -2.20068201      -1.92756530
H       -2.26427589       2.46648915       3.29511300      -2.37749447       2.20068201       1.92756530
H        1.00390494       3.19416520       2.50766750       0.71709944       3.15931166      -1.92756530
H       -1.00390421      -3.19416520       3.29511300      -0.71709944      -3.15931166       1.92756530
H       -3.26818083      -0.72767605       2.50766750      -3.09459391      -0.95862964      -1.92756530
H        3.26818011       0.72767605       3.29511300       3.09459391       0.95862964       1.92756530
