36
Lattice="6.491374676997684 -3.747796823403464 2.0843318328023193 0.0 7.495593646806928 2.0843318328023193 -6.491374676997684 -3.747796823403464 2.0843318328023193" Properties=species:S:1:pos:R:3:forces:R:3 energy=-5688.072978867182 free_energy=-5688.072978867182 stress="-0.000408580138763756 0.0 0.0 0.0 -0.000408580138763756 -0.0 0.0 -0.0 -0.0006372013849484195" pbc="T T T"
O       -3.79787434      -4.00960002       2.41335890       0.00514323       0.00246620       0.00340800
O        3.79787434       4.00960080       3.83963816      -0.00514323      -0.00246620      -0.00340800
O        5.37135275      -1.28425538       2.41335890      -0.00470743       0.00322108       0.00340800
O       -5.37135275       1.28425538       3.83963816       0.00470743      -0.00322108      -0.00340800
O       -1.57347841       5.29385540       2.41335890      -0.00043580      -0.00568728       0.00340800
O        1.57347841      -5.29385540       3.83963816       0.00043580       0.00568728      -0.00340800
O        0.94031328       2.60723337       3.21895215       0.01861684      -0.01392535       0.00618067
O       -0.94031328      -2.60723337       3.03404413      -0.01861684       0.01392535      -0.00618067
O       -2.72808710      -0.48928182       3.21895215       0.00275134       0.02308542       0.00618067
O        2.72808710       0.48928182       3.03404413      -0.00275134      -0.02308542      -0.00618067
O        1.78777382      -2.11795232       3.21895215      -0.02136818      -0.00916007       0.00618067
O       -1.78777382       2.11795232       3.03404413       0.02136818       0.00916007      -0.00618067
H       -4.22487260      -3.19188942       2.03999206       0.01339750      -0.00448323      -0.01434804
H        4.22487260       3.19188942       4.21300422      -0.01339750       0.00448323       0.01434804
H        4.87669417      -2.06290260       2.03999206      -0.00281613       0.01384436      -0.01434804
H       -4.87669417       2.06290260       4.21300422       0.00281613      -0.01384436       0.01434804
H       -0.65182079       5.25479202       2.03999206      -0.01058138      -0.00936087      -0.01434804
H        0.65182157      -5.25479202       4.21300422       0.01058138       0.00936087       0.01434804
H       -3.64239028      -3.78075523       3.36670445      -0.00112254      -0.00804010       0.00181494
H        3.64239028       3.78075523       2.88629183       0.00112254       0.00804010      -0.00181494
H        5.09542496      -1.26402504       3.36670445       0.00752433       0.00304804       0.00181494
H       -5.09542496       1.26402504       2.88629183      -0.00752433      -0.00304804      -0.00181494
H       -1.45303468       5.04478028       3.36670445      -0.00640179       0.00499231       0.00181494
H        1.45303468      -5.04478028       2.88629183       0.00640179      -0.00499231      -0.00181494
H        2.11527834      -1.17961905       3.20439966       0.01377700      -0.02001630      -0.00481902
H       -2.11527834       1.17961828       3.04859739      -0.01377700       0.02001630       0.00481902
H       -0.03605952       2.42169361       3.20439966       0.01044614       0.02193948      -0.00481902
H        0.03605952      -2.42169361       3.04859739      -0.01044614      -0.02193948       0.00481902
H       -2.07921882      -1.24207533       3.20439966      -0.02422313      -0.00192319      -0.00481902
H        2.07921882       1.24207533       3.04859739       0.02422313       0.00192319       0.00481902
H        2.43995249      -2.65785471       2.70222794       0.00013190       0.01509032       0.01982603
H       -2.43995249       2.65785471       3.55076834      -0.00013190      -0.01509032      -0.01982603
H        1.08179412       3.44198839       2.70222794      -0.01313448      -0.00743100       0.01982603
H       -1.08179334      -3.44198839       3.55076834       0.01313448       0.00743100      -0.01982603
H       -3.52174661      -0.78413368       2.70222794       0.01300284      -0.00765932       0.01982603
H        3.52174583       0.78413368       3.55076834      -0.01300284       0.00765932      -0.01982603
