36
Lattice="6.043469688294219 -3.4891987640744038 1.9405128926733872 0.0 6.9783975281488075 1.9405128926733872 -6.043469688294219 -3.4891987640744038 1.9405128926733872" Properties=species:S:1:pos:R:3:forces:R:3 energy=-5683.193702769052 free_energy=-5683.193702769052 stress="-0.13219725159403226 -0.0 -0.0 -0.0 -0.13219725159403226 -0.0 -0.0 -0.0 -0.14713567599332733" pbc="T T T"
O       -3.51125642      -3.76484592       2.23353064       0.33259688      -1.38149718      -1.29197034
O        3.51125642       3.76484664       3.58800877      -0.33259688       1.38149718       1.29197034
O        5.01608049      -1.15841396       2.23353064       1.03011325       0.97878581      -1.29197034
O       -5.01608122       1.15841396       3.58800877      -1.03011325      -0.97878581       1.29197034
O       -1.50482408       4.92326060       2.23353064      -1.36271013       0.40271137      -1.29197034
O        1.50482408      -4.92326060       3.58800877       1.36271013      -0.40271137       1.29197034
O        0.88234670       2.40754802       3.02720055       1.70929689      -0.99814441       0.94274871
O       -0.88234670      -2.40754802       2.79433886      -1.70929689       0.99814441      -0.94274871
O       -2.52617101      -0.43963925       3.02720055       0.00976993       1.97936685       0.94274871
O        2.52617101       0.43963925       2.79433886      -0.00976993      -1.97936685      -0.94274871
O        1.64382431      -1.96790877       3.02720055      -1.71906683      -0.98122218       0.94274871
O       -1.64382431       1.96790804       2.79433886       1.71906683       0.98122218      -0.94274871
H       -3.89803856      -2.92045999       2.02589549      -1.09049073       1.79341645      -2.38780433
H        3.89803856       2.92045999       3.79564391       1.09049073      -1.79341645       2.38780433
H        4.47821215      -1.91557028       2.02589549      -1.00789892      -1.84110090      -2.38780433
H       -4.47821215       1.91557028       3.79564391       1.00789892       1.84110090       2.38780433
H       -0.58017358       4.83603027       2.02589549       2.09838965       0.04768445      -2.38780433
H        0.58017358      -4.83603027       3.79564391      -2.09838965      -0.04768445       2.38780433
H       -3.52938682      -3.48919949       3.13392879       0.90843837      -0.62164518       3.31761037
H        3.52938682       3.48919949       2.68761061      -0.90843837       0.62164518      -3.31761037
H        4.78642898      -1.31193894       3.13392879       0.08414141       1.09755329       3.31761037
H       -4.78642898       1.31193894       2.68761061      -0.08414141      -1.09755329      -3.31761037
H       -1.25704216       4.80113843       3.13392879      -0.99257977      -0.47590811       3.31761037
H        1.25704216      -4.80113843       2.68761061       0.99257977       0.47590811      -3.31761037
H        1.95808412      -1.08863028       2.93987750       0.47920838       2.90155214       0.18443063
H       -1.95808485       1.08863028       2.88166190      -0.47920838      -2.90155214      -0.18443063
H       -0.03626080       2.24006616       2.93987750      -2.75242198      -1.03576968       0.18443063
H        0.03626080      -2.24006616       2.88166190       2.75242198       1.03576968      -0.18443063
H       -1.92182332      -1.15143588       2.93987750       2.27321386      -1.86578272       0.18443063
H        1.92182332       1.15143588       2.88166190      -2.27321386       1.86578272      -0.18443063
H        2.30256248      -2.42499394       2.53042928       1.26597931      -1.97111027      -1.16272073
H       -2.30256248       2.42499394       3.29111013      -1.26597931       1.97111027       1.16272073
H        0.94882533       3.20657426       2.53042928       1.07404184       2.08192559      -1.16272073
H       -0.94882460      -3.20657426       3.29111013      -1.07404184      -2.08192559       1.16272073
H       -3.25138708      -0.78158032       2.53042928      -2.34002141      -0.11081506      -1.16272073
H        3.25138708       0.78158032       3.29111013       2.34002141       0.11081506       1.16272073
36
Lattice="6.043469688294219 -3.4891987640744038 1.9405128926733872 0.0 6.9783975281488075 1.9405128926733872 -6.043469688294219 -3.4891987640744038 1.9405128926733872" Properties=species:S:1:pos:R:3:forces:R:3 energy=-5685.154045557242 free_energy=-5685.154045557242 stress="-0.025653323768672683 -0.0 0.0 -0.0 -0.025653323768672683 -0.0 0.0 -0.0 -0.03149647883180199" pbc="T T T"
O       -3.50441029      -3.79327896       2.20693933      -0.70328619       1.43990416       1.22085645
O        3.50441048       3.79327914       3.61459932       0.70328619      -1.43990416      -1.22085645
O        5.03728117      -1.13826879       2.20693933      -0.89535042      -1.32901582       1.22085645
O       -5.03728142       1.13826885       3.61459932       0.89535042       1.32901582      -1.22085645
O       -1.53287087       4.93154774       2.20693933       1.59863661      -0.11088834       1.22085645
O        1.53287094      -4.93154799       3.61459932      -1.59863661       0.11088834      -1.22085645
O        0.91752682       2.38700372       3.04660344      -1.34580281       0.69054740      -0.73374913
O       -0.91752664      -2.38700362       2.77493518       1.34580281      -0.69054740       0.73374913
O       -2.52596932      -0.39890034       3.04660344       0.07486975      -1.51077302      -0.73374913
O        2.52596914       0.39890045       2.77493518      -0.07486975       1.51077302       0.73374913
O        1.60844250      -1.98810338       3.04660344       1.27093306       0.82022562      -0.73374913
O       -1.60844250       1.98810317       2.77493518      -1.27093306      -0.82022562       0.73374913
H       -3.92048209      -2.88354783       1.97675037       0.02881255      -0.56770652      -1.19716168
H        3.92048200       2.88354782       3.84478827      -0.02881255       0.56770652       1.19716168
H        4.45746678      -1.95346308       1.97675037       0.47724200       0.30880569      -1.19716168
H       -4.45746673       1.95346301       3.84478827      -0.47724200      -0.30880569       1.19716168
H       -0.53698469       4.83701091       1.97675037      -0.50605455       0.25890083      -1.19716168
H        0.53698473      -4.83701083       3.84478827       0.50605455      -0.25890083       1.19716168
H       -3.51068903      -3.50199319       3.20221036       0.77918721      -1.09542442      -0.40315335
H        3.51068915       3.50199337       2.61932830      -0.77918721       1.09542442       0.40315335
H        4.78815965      -1.28934921       3.20221036       0.55907173       1.22250813      -0.40315335
H       -4.78815987       1.28934923       2.61932830      -0.55907173      -1.22250813       0.40315335
H       -1.27747063       4.79134240       3.20221036      -1.33825920      -0.12708372      -0.40315335
H        1.27747072      -4.79134260       2.61932830       1.33825920       0.12708372       0.40315335
H        1.96794693      -1.02891112       2.94367291      -0.63516044      -0.33993532       0.54867161
H       -1.96794711       1.02891081       2.87786577       0.63516044       0.33993532      -0.54867161
H       -0.09291027       2.21874756       2.94367291       0.61197269      -0.38009749       0.54867161
H        0.09291063      -2.21874756       2.87786577      -0.61197269       0.38009749      -0.54867161
H       -1.87503666      -1.18983643       2.94367291       0.02318749       0.72003256       0.54867161
H        1.87503648       1.18983675       2.87786577      -0.02318749      -0.72003256      -0.54867161
H        2.32861787      -2.46556205       2.50649804      -0.72469988      -0.54751179       0.34869610
H       -2.32861787       2.46556194       3.31504061       0.72469988       0.54751179      -0.34869610
H        0.97093049       3.24942321       2.50649804       0.83650893      -0.35385270       0.34869610
H       -0.97093039      -3.24942316       3.31504061      -0.83650893       0.35385270      -0.34869610
H       -3.29954836      -0.78386116       2.50649804      -0.11180905       0.90136449       0.34869610
H        3.29954827       0.78386121       3.31504061       0.11180905      -0.90136449      -0.34869610
36
Lattice="6.043469688294219 -3.4891987640744038 1.9405128926733872 0.0 6.9783975281488075 1.9405128926733872 -6.043469688294219 -3.4891987640744038 1.9405128926733872" Properties=species:S:1:pos:R:3:forces:R:3 energy=-5686.088666659401 free_energy=-5686.088666659401 stress="-0.03780605796345262 -0.0 -0.0 -0.0 -0.03780605796345262 -0.0 -0.0 -0.0 -0.04412022788317925" pbc="T T T"
O       -3.51571515      -3.77278235       2.22386171      -0.36910243       0.78410239       0.60323711
O        3.51571533       3.77278253       3.59767694       0.36910243      -0.78410239      -0.60323711
O        5.02518301      -1.15830738       2.22386171      -0.49450156      -0.71170321       0.60323711
O       -5.02518326       1.15830745       3.59767694       0.49450156       0.71170321      -0.60323711
O       -1.50946786       4.93108973       2.22386171       0.86360373      -0.07239918       0.60323711
O        1.50946793      -4.93108998       3.59767694      -0.86360373       0.07239918      -0.60323711
O        0.89995058       2.39556445       3.03706155      -0.71429205       0.47370776      -0.55710972
O       -0.89995040      -2.39556435       2.78447706       0.71429205      -0.47370776       0.55710972
O       -2.52459502      -0.41840218       3.03706155      -0.05309688      -0.85544896      -0.55710972
O        2.52459484       0.41840228       2.78447706       0.05309688       0.85544896       0.55710972
O        1.62464443      -1.97716228       3.03706155       0.76738893       0.38174120      -0.55710972
O       -1.62464443       1.97716207       2.78447706      -0.76738893      -0.38174120       0.55710972
H       -3.92409080      -2.88690722       1.94633722      -0.05151797      -0.33946892      -0.78817270
H        3.92409071       2.88690721       3.87520142       0.05151797       0.33946892       0.78817270
H        4.46218045      -1.95490862       1.94633722       0.31974753       0.12511862      -0.78817270
H       -4.46218040       1.95490855       3.87520142      -0.31974753      -0.12511862       0.78817270
H       -0.53808965       4.84181584       1.94633722      -0.26822957       0.21435030      -0.78817270
H        0.53808969      -4.84181577       3.87520142       0.26822957      -0.21435030       0.78817270
H       -3.49333577      -3.52391082       3.20755361       0.57897258      -0.61088563      -0.13813329
H        3.49333589       3.52391100       2.61398505      -0.57897258       0.61088563       0.13813329
H        4.79846425      -1.26336203       3.20755361       0.23955611       0.80684765      -0.13813329
H       -4.79846447       1.26336205       2.61398505      -0.23955611      -0.80684765       0.13813329
H       -1.30512849       4.78727285       3.20755361      -0.81852869      -0.19596228      -0.13813329
H        1.30512858      -4.78727305       2.61398505       0.81852869       0.19596228       0.13813329
H        1.95841334      -1.02401184       2.95417095      -0.29096969      -0.12445913       0.38057418
H       -1.95841352       1.02401153       2.86736773       0.29096969       0.12445913      -0.38057418
H       -0.09238638       2.20804159       2.95417095       0.25326960      -0.18975770       0.38057418
H        0.09238674      -2.20804159       2.86736773      -0.25326960       0.18975770      -0.38057418
H       -1.86602696      -1.18402974       2.95417095       0.03770009       0.31421657       0.38057418
H        1.86602678       1.18403006       2.86736773      -0.03770009      -0.31421657      -0.38057418
H        2.32045983      -2.48279519       2.50833014      -0.46241727      -0.34068994       0.20392139
H       -2.32045983       2.48279508       3.31320851       0.46241727       0.34068994      -0.20392139
H        0.98993384       3.25097471       2.50833014       0.52625494      -0.23012016       0.20392139
H       -0.98993375      -3.25097465       3.31320851      -0.52625494       0.23012016      -0.20392139
H       -3.31039367      -0.76817952       2.50833014      -0.06383741       0.57081010       0.20392139
H        3.31039358       0.76817957       3.31320851       0.06383741      -0.57081010      -0.20392139
36
Lattice="6.043469688294219 -3.4891987640744038 1.9405128926733872 0.0 6.9783975281488075 1.9405128926733872 -6.043469688294219 -3.4891987640744038 1.9405128926733872" Properties=species:S:1:pos:R:3:forces:R:3 energy=-5686.576630174634 free_energy=-5686.576630174634 stress="-0.046608435020369765 0.0 0.0 0.0 -0.046608435020369765 -0.0 0.0 -0.0 -0.04978801484180547" pbc="T T T"
O       -3.52557778      -3.75434868       2.23704997      -0.11078781       0.23795560       0.15999306
O        3.52557796       3.75434886       3.58448867       0.11078781      -0.23795560      -0.15999306
O        5.01415031      -1.17606550       2.23704997      -0.15068181      -0.21492288       0.15999306
O       -5.01415055       1.17606557       3.58448867       0.15068181       0.21492288      -0.15999306
O       -1.48857252       4.93041419       2.23704997       0.26146936      -0.02303271       0.15999306
O        1.48857259      -4.93041444       3.58448867      -0.26146936       0.02303271      -0.15999306
O        0.88491393       2.40626612       3.02351131      -0.21934595       0.02632501      -0.24095505
O       -0.88491375      -2.40626601       2.79802731       0.21934595      -0.02632501       0.24095505
O       -2.52634460      -0.43677513       3.02351131       0.08687475      -0.20312152      -0.24095505
O        2.52634442       0.43677524       2.79802731      -0.08687475       0.20312152       0.24095505
O        1.64143067      -1.96949098       3.02351131       0.13247095       0.17679651      -0.24095505
O       -1.64143067       1.96949077       2.79802731      -0.13247095      -0.17679651       0.24095505
H       -3.92993877      -2.89038621       1.91313613      -0.09126259      -0.16463751      -0.34629237
H        3.92993868       2.89038620       3.90840250       0.09126259       0.16463751       0.34629237
H        4.46811733      -1.95823362       1.91313613       0.18821144       0.00328304      -0.34629237
H       -4.46811728       1.95823355       3.90840250      -0.18821144      -0.00328304       0.34629237
H       -0.53817857       4.84861983       1.91313613      -0.09694884       0.16135446      -0.34629237
H        0.53817860      -4.84861975       3.90840250       0.09694884      -0.16135446       0.34629237
H       -3.47206751      -3.54477814       3.21619259       0.37686742      -0.16528877      -0.03574656
H        3.47206763       3.54477832       2.60534608      -0.37686742       0.16528877       0.03574656
H        4.80590175      -1.23450952       3.21619259      -0.04528947       0.40902112      -0.03574656
H       -4.80590197       1.23450954       2.60534608       0.04528947      -0.40902112       0.03574656
H       -1.33383424       4.77928766       3.21619259      -0.33157795      -0.24373235      -0.03574656
H        1.33383433      -4.77928786       2.60534608       0.33157795       0.24373235       0.03574656
H        1.95155153      -1.01658699       2.96653811       0.01737577      -0.01561791       0.21461872
H       -1.95155171       1.01658668       2.85500057      -0.01737577       0.01561791      -0.21461872
H       -0.09538558       2.19838666       2.96653811       0.00483753       0.02285685       0.21461872
H        0.09538595      -2.19838666       2.85500057      -0.00483753      -0.02285685      -0.21461872
H       -1.85616595      -1.18179966       2.96653811      -0.02221330      -0.00723894       0.21461872
H        1.85616577       1.18179998       2.85500057       0.02221330       0.00723894      -0.21461872
H        2.31117918      -2.50069717       2.51008608      -0.07673097      -0.23133809      -0.03606101
H       -2.31117918       2.50069707       3.31145257       0.07673097       0.23133809       0.03606101
H        1.01007774       3.25188842       2.51008608       0.23870996       0.04921811      -0.03606101
H       -1.01007765      -3.25188837       3.31145257      -0.23870996      -0.04921811       0.03606101
H       -3.32125692      -0.75119125       2.51008608      -0.16197898       0.18211998      -0.03606101
H        3.32125683       0.75119130       3.31145257       0.16197898      -0.18211998       0.03606101
36
Lattice="6.043469688294219 -3.4891987640744038 1.9405128926733872 0.0 6.9783975281488075 1.9405128926733872 -6.043469688294219 -3.4891987640744038 1.9405128926733872" Properties=species:S:1:pos:R:3:forces:R:3 energy=-5686.695082417056 free_energy=-5686.695082417056 stress="-0.04813533113444646 0.0 0.0 0.0 -0.04813533113444646 -0.0 0.0 -0.0 -0.04758168209248118" pbc="T T T"
O       -3.53188387      -3.74270517       2.24468472       0.04709978      -0.09297932      -0.09237305
O        3.53188405       3.74270535       3.57685392      -0.04709978       0.09297932       0.09237305
O        5.00721977      -1.18734849       2.24468472       0.05697256       0.08727918      -0.09237305
O       -5.00722002       1.18734855       3.57685392      -0.05697256      -0.08727918       0.09237305
O       -1.47533591       4.93005366       2.24468472      -0.10407234       0.00570014      -0.09237305
O        1.47533597      -4.93005391       3.57685392       0.10407234      -0.00570014       0.09237305
O        0.87540915       2.40881863       3.01288963       0.14324130       0.04123869      -0.18359991
O       -0.87540897      -2.40881853       2.80864899      -0.14324130      -0.04123869       0.18359991
O       -2.52380276      -0.44628278       3.01288963      -0.10733430       0.10343137      -0.18359991
O        2.52380257       0.44628288       2.80864899       0.10733430      -0.10343137       0.18359991
O        1.64839361      -1.96253586       3.01288963      -0.03590700      -0.14466980      -0.18359991
O       -1.64839361       1.96253565       2.80864899       0.03590700       0.14466980       0.18359991
H       -3.93633585      -2.89425875       1.88786187      -0.09008888      -0.07123781      -0.02827339
H        3.93633577       2.89425874       3.93367677       0.09008888       0.07123781       0.02827339
H        4.47466959      -1.96183738       1.88786187       0.10673806      -0.04240032      -0.02827339
H       -4.47466954       1.96183732       3.93367677      -0.10673806       0.04240032       0.02827339
H       -0.53833374       4.85609613       1.88786187      -0.01664944       0.11363813      -0.02827339
H        0.53833378      -4.85609606       3.93367677       0.01664944      -0.11363813       0.02827339
H       -3.45171612      -3.55771058       3.22250152       0.21992625       0.12297664      -0.02166823
H        3.45171624       3.55771075       2.59903715      -0.21992625      -0.12297664       0.02166823
H        4.80692587      -1.21041848       3.22250152      -0.21646400       0.12897348      -0.02166823
H       -4.80692609       1.21041850       2.59903715       0.21646400      -0.12897348       0.02166823
H       -1.35520976       4.76812906       3.22250152      -0.00346225      -0.25194985      -0.02166823
H        1.35520985      -4.76812925       2.59903715       0.00346225       0.25194985       0.02166823
H        1.95062854      -1.01056742       2.97771982       0.18085834       0.04702805       0.10580681
H       -1.95062872       1.01056710       2.84381885      -0.18085834      -0.04702805      -0.10580681
H       -0.10013719       2.19457754       2.97771982      -0.13115660       0.13311398       0.10580681
H        0.10013756      -2.19457754       2.84381885       0.13115660      -0.13311398      -0.10580681
H       -1.85049135      -1.18401012       2.97771982      -0.04970174      -0.18014177       0.10580681
H        1.85049117       1.18401043       2.84381885       0.04970174       0.18014177      -0.10580681
H        2.30772766      -2.51689544       2.50765984      -0.02625559       0.00868390      -0.03366834
H       -2.30772766       2.51689534       3.31387881       0.02625559      -0.00868390       0.03366834
H        1.02583162       3.25699845       2.50765984       0.00560732      -0.02707989      -0.03366834
H       -1.02583153      -3.25699839       3.31387881      -0.00560732       0.02707989       0.03366834
H       -3.33355928      -0.74010300       2.50765984       0.02064827       0.01839599      -0.03366834
H        3.33355919       0.74010305       3.31387881      -0.02064827      -0.01839599       0.03366834
36
Lattice="6.043469688294219 -3.4891987640744038 1.9405128926733872 0.0 6.9783975281488075 1.9405128926733872 -6.043469688294219 -3.4891987640744038 1.9405128926733872" Properties=species:S:1:pos:R:3:forces:R:3 energy=-5686.718605161782 free_energy=-5686.718605161782 stress="-0.047629426288471555 0.0 0.0 0.0 -0.047629426288471555 -0.0 0.0 -0.0 -0.04561039769264796" pbc="T T T"
O       -3.53229041      -3.74205722       2.24457977       0.05412404      -0.09678198      -0.04937444
O        3.53229059       3.74205740       3.57695887      -0.05412404       0.09678198       0.04937444
O        5.00686190      -1.18802454       2.24457977       0.05675350       0.09526374      -0.04937444
O       -5.00686215       1.18802461       3.57695887      -0.05675350      -0.09526374       0.04937444
O       -1.47457149       4.93008176       2.24457977      -0.11087754       0.00151824      -0.04937444
O        1.47457156      -4.93008201       3.57695887       0.11087754      -0.00151824       0.04937444
O        0.87637032       2.41066502       3.00650563       0.03237379      -0.14565197      -0.06375050
O       -0.87637013      -2.41066492       2.81503299      -0.03237379       0.14565197       0.06375050
O       -2.52588236      -0.44637357       3.00650563       0.10995143       0.10086258      -0.06375050
O        2.52588218       0.44637368       2.81503299      -0.10995143      -0.10086258       0.06375050
O        1.64951204      -1.96429145       3.00650563      -0.14232522       0.04478965      -0.06375050
O       -1.64951204       1.96429124       2.81503299       0.14232522      -0.04478965       0.06375050
H       -3.93946876      -2.89678685       1.88218555      -0.07338828      -0.06735622       0.02939079
H        3.93946867       2.89678684       3.93935308       0.07338828       0.06735622      -0.02939079
H        4.47842544      -1.96328651       1.88218555       0.09502617      -0.02987802       0.02939079
H       -4.47842539       1.96328644       3.93935308      -0.09502617       0.02987802      -0.02939079
H       -0.53895669       4.86007336       1.88218555      -0.02163815       0.09723424       0.02939079
H        0.53895672      -4.86007328       3.93935308       0.02163815      -0.09723424      -0.02939079
H       -3.44282155      -3.55776722       3.22293186       0.17598353       0.14597310      -0.08265917
H        3.44282168       3.55776740       2.59860681      -0.17598353      -0.14597310       0.08265917
H        4.80252765      -1.20268724       3.22293186      -0.21440815       0.07941958      -0.08265917
H       -4.80252786       1.20268726       2.59860681       0.21440815      -0.07941958       0.08265917
H       -1.35970609       4.76045446       3.22293186       0.03842462      -0.22539267      -0.08265917
H        1.35970619      -4.76045466       2.59860681      -0.03842462       0.22539267       0.08265917
H        1.95420583      -1.00856390       2.98232762       0.15780917      -0.08007238       0.07763035
H       -1.95420601       1.00856358       2.83921106      -0.15780917       0.08007238      -0.07763035
H       -0.10366093       2.19667380       2.98232762      -0.00955988       0.17670292       0.07763035
H        0.10366130      -2.19667380       2.83921106       0.00955988      -0.17670292      -0.07763035
H       -1.85054489      -1.18810990       2.98232762      -0.14824929      -0.09663054       0.07763035
H        1.85054471       1.18811021       2.83921106       0.14824929       0.09663054      -0.07763035
H        2.30610453      -2.51975670       2.50670366       0.08619238      -0.03511690      -0.11444726
H       -2.30610453       2.51975660       3.31483499      -0.08619238       0.03511690       0.11444726
H        1.02912111       3.25702340       2.50670366      -0.01268402       0.09220336      -0.11444726
H       -1.02912101      -3.25702335       3.31483499       0.01268402      -0.09220336       0.11444726
H       -3.33522563      -0.73726670       2.50670366      -0.07350835      -0.05708646      -0.11444726
H        3.33522554       0.73726676       3.31483499       0.07350835       0.05708646       0.11444726
36
Lattice="6.043469688294219 -3.4891987640744038 1.9405128926733872 0.0 6.9783975281488075 1.9405128926733872 -6.043469688294219 -3.4891987640744038 1.9405128926733872" Properties=species:S:1:pos:R:3:forces:R:3 energy=-5686.742522063403 free_energy=-5686.742522063403 stress="-0.04687286441354721 -0.0 -0.0 -0.0 -0.04687286441354721 -0.0 -0.0 -0.0 -0.04349312623199803" pbc="T T T"
O       -3.53199645      -3.74251798       2.24426760       0.04917878      -0.08282397      -0.04174392
O        3.53199663       3.74251816       3.57727104      -0.04917878       0.08282397       0.04174392
O        5.00711395      -1.18753959       2.24426760       0.04713835       0.08400205      -0.04174392
O       -5.00711420       1.18753965       3.57727104      -0.04713835      -0.08400205       0.04174392
O       -1.47511750       4.93005756       2.24426760      -0.09631712      -0.00117808      -0.04174392
O        1.47511757      -4.93005781       3.57727104       0.09631712       0.00117808       0.04174392
O        0.87684421       2.40972184       3.00067152       0.02818880      -0.12168106      -0.03261213
O       -0.87684403      -2.40972174       2.82086710      -0.02818880       0.12168106       0.03261213
O       -2.52530249      -0.44549158       3.00067152       0.09128445       0.08525290      -0.03261213
O        2.52530231       0.44549168       2.82086710      -0.09128445      -0.08525290       0.03261213
O        1.64845828      -1.96423026       3.00067152      -0.11947325       0.03642842      -0.03261213
O       -1.64845828       1.96423005       2.82086710       0.11947325      -0.03642842       0.03261213
H       -3.94286164      -2.89998339       1.87817829      -0.05166220      -0.06950257       0.06057159
H        3.94286156       2.89998338       3.94336034       0.05166220       0.06950257      -0.06057159
H        4.48289017      -1.96462657       1.87817829       0.08602191      -0.00998951       0.06057159
H       -4.48289012       1.96462650       3.94336034      -0.08602191       0.00998951      -0.06057159
H       -0.54002853       4.86460996       1.87817829      -0.03435971       0.07949208       0.06057159
H        0.54002856      -4.86460988       3.94336034       0.03435971      -0.07949208      -0.06057159
H       -3.43330263      -3.55586981       3.22161088       0.13793866       0.15126931      -0.09137855
H        3.43330276       3.55586999       2.59992778      -0.13793866      -0.15126931       0.09137855
H        4.79612498      -1.19539232       3.22161088      -0.19997243       0.04382394      -0.09137855
H       -4.79612520       1.19539234       2.59992778       0.19997243      -0.04382394       0.09137855
H       -1.36282235       4.75126213       3.22161088       0.06203352      -0.19509299      -0.09137855
H        1.36282244      -4.75126233       2.59992778      -0.06203352       0.19509299       0.09137855
H        1.95903890      -1.00876566       2.98710264       0.13245578      -0.11079526       0.05068210
H       -1.95903908       1.00876535       2.83443604      -0.13245578       0.11079526      -0.05068210
H       -0.10590274       2.20096024       2.98710264       0.02972375       0.17010778       0.05068210
H        0.10590310      -2.20096024       2.83443604      -0.02972375      -0.17010778      -0.05068210
H       -1.85313616      -1.19219458       2.98710264      -0.16217953      -0.05931226       0.05068210
H        1.85313598       1.19219490       2.83443604       0.16217953       0.05931226      -0.05068210
H        2.30613136      -2.52263918       2.50423831       0.08140935       0.00126010      -0.10688230
H       -2.30613136       2.52263908       3.31730034      -0.08140935      -0.00126010       0.10688230
H        1.03160399       3.25848789       2.50423831      -0.04179585       0.06987256      -0.10688230
H       -1.03160390      -3.25848784       3.31730034       0.04179585      -0.06987256       0.10688230
H       -3.33773536      -0.73584870       2.50423831      -0.03961350      -0.07113265      -0.10688230
H        3.33773526       0.73584876       3.31730034       0.03961350       0.07113265       0.10688230
36
Lattice="6.043469688294219 -3.4891987640744038 1.9405128926733872 0.0 6.9783975281488075 1.9405128926733872 -6.043469688294219 -3.4891987640744038 1.9405128926733872" Properties=species:S:1:pos:R:3:forces:R:3 energy=-5686.773447256939 free_energy=-5686.773447256939 stress="-0.046525800835001824 -0.0 0.0 -0.0 -0.046525800835001824 -0.0 0.0 -0.0 -0.0411968140363842" pbc="T T T"
O       -3.53084301      -3.74428214       2.24299576       0.03567149      -0.04901243      -0.00427497
O        3.53084319       3.74428233       3.57854288      -0.03567149       0.04901243       0.00427497
O        5.00806504      -1.18565860       2.24299576       0.02461034       0.05539853      -0.00427497
O       -5.00806529       1.18565866       3.57854288      -0.02461034      -0.05539853       0.00427497