24
Lattice="4.177855647482834 0.0 0.0 0.0 7.236543146262318 0.0 0.0 0.0 6.800383372376405" Properties=species:S:1:pos:R:3:forces:R:3 energy=-3787.118405612361 free_energy=-3787.118405612361 stress="-0.21637302359790278 -0.0 -0.0 -0.0 -0.09806106961853184 0.0 -0.0 0.0 -0.16865086339029609" pbc="T T T"
O        0.00000000       4.81085384       0.42910421       0.00000000       0.52369900      -4.61005585
O        0.00000000       2.42568931       3.82929590       0.00000000      -0.52370235      -4.61003502
O        2.08892782       1.19258226       0.42910421       0.00000000       0.52370055      -4.61005944
O        2.08892782       6.04396130       3.82929590       0.00000000      -0.52370003      -4.61003116
O        2.08892782       5.97376664       6.37127916       0.00000000       6.50180850      -4.98013401
O        2.08892782       1.26277692       2.97108747       0.00000000      -6.50180156      -4.98013066
O        0.00000000       2.35549507       6.37127916       0.00000000       6.50180902      -4.98013349
O        0.00000000       4.88104850       2.97108747       0.00000000      -6.50180027      -4.98012989
H        0.00000000       4.80217058       1.33491512       0.00000000       0.02742184       4.79424145
H        0.00000000       2.43437298       4.73510723       0.00000000      -0.02742030       4.79420520
H        2.08892782       1.18389859       1.33491512       0.00000000       0.02742159       4.79423836
H        2.08892782       6.05264456       4.73510723       0.00000000      -0.02742056       4.79420905
H        0.00000000       3.88095842       0.12444704       0.00000000      -0.64004245      -0.35131091
H        0.00000000       3.35558514       3.52463873       0.00000000       0.64003885      -0.35130757
H        2.08892782       0.26268643       0.12444704       0.00000000      -0.64004039      -0.35130988
H        2.08892782       6.97385671       3.52463873       0.00000000       0.64004091      -0.35130885
H        2.82673713       5.60687404       6.67593633       5.83844306      -3.26391802       2.57363210
H        1.35111852       1.62966952       3.27574465      -5.83843560       3.26391519       2.57363081
H        2.82673713       1.62966952       3.27574465       5.83843560       3.26391519       2.57363081
H        1.35111852       5.60687404       6.67593633      -5.83844306      -3.26391802       2.57363210
H        0.73780931       1.98860205       6.67593633       5.83844229      -3.26391853       2.57363184
H        3.44004634       5.24794109       3.27574465      -5.83843663       3.26391519       2.57363133
H        0.73780931       5.24794109       3.27574465       5.83843663       3.26391519       2.57363133
H        3.44004634       1.98860205       6.67593633      -5.83844229      -3.26391853       2.57363184
24
Lattice="4.177855647482834 0.0 0.0 0.0 7.236543146262318 0.0 0.0 0.0 6.800383372376405" Properties=species:S:1:pos:R:3:forces:R:3 energy=-3789.35180674634 free_energy=-3789.35180674634 stress="0.030158723186456387 -0.0 -0.0 -0.0 -0.04429284151483675 -0.0 -0.0 -0.0 0.014595033451210484" pbc="T T T"
O        0.00000000       4.82163242       0.33422134       0.00000000       1.73970353       2.18563798
O        0.00000000       2.41491066       3.73441330       0.00000000      -1.73969839       2.18562486
O        2.08892782       1.20336088       0.33422127       0.00000000       1.73970379       2.18563926
O        2.08892782       6.03318227       3.73441338       0.00000000      -1.73969813       2.18562358
O        2.08892782       6.10758483       6.26877960       0.00000000      -2.72849221       2.12730145
O        2.08892782       1.12895846       2.86858778       0.00000000       2.72848887       2.12730016
O        0.00000000       2.48931327       6.26877962       0.00000000      -2.72849221       2.12730093
O        0.00000000       4.74723006       2.86858780       0.00000000       2.72848861       2.12730042
H        0.00000000       4.80273462       1.43358898       0.00000000       0.31284695      -0.86596117
H        0.00000000       2.43380856       4.83378013       0.00000000      -0.31284720      -0.86594986
H        2.08892782       1.18446304       1.43358892       0.00000000       0.31284746      -0.86596117
H        2.08892782       6.05208012       4.83378020       0.00000000      -0.31284669      -0.86594986
H        0.00000000       3.86778495       0.11721644       0.00000000      -1.21739806      -0.94444847
H        0.00000000       3.36875812       3.51740817       0.00000000       1.21739472      -0.94444795
H        2.08892782       0.24951341       0.11721646       0.00000000      -1.21739909      -0.94444898
H        2.08892782       6.98702974       3.51740814       0.00000000       1.21739369      -0.94444718
H        2.94690223       5.53969661       6.72890614      -1.16718725       0.98673052      -1.25126438
H        1.23095357       1.69684648       3.32871443       1.16718545      -0.98672974      -1.25126412
H        2.94690208       1.69684648       3.32871443      -1.16718545      -0.98672974      -1.25126412
H        1.23095342       5.53969661       6.72890614       1.16718725       0.98673052      -1.25126438
H        0.85797439       1.92142503       6.72890614      -1.16718725       0.98673077      -1.25126438
H        3.31988137       5.31511805       3.32871445       1.16718570      -0.98672949      -1.25126412
H        0.85797428       5.31511805       3.32871445      -1.16718570      -0.98672949      -1.25126412
H        3.31988125       1.92142503       6.72890614       1.16718725       0.98673077      -1.25126438
24
Lattice="4.177855647482834 0.0 0.0 0.0 7.236543146262318 0.0 0.0 0.0 6.800383372376405" Properties=species:S:1:pos:R:3:forces:R:3 energy=-3790.6105676761945 free_energy=-3790.6105676761945 stress="0.001534241374998284 -0.0 -0.0 -0.0 -0.011348428123865223 -0.0 -0.0 -0.0 -0.010103406397654766" pbc="T T T"
O        0.00000000       4.84921064       0.36597265       0.00000000      -0.61245631       1.05156345
O        0.00000000       2.38733252       3.76616441       0.00000000       0.61245503       1.05155497
O        2.08892782       1.23093911       0.36597260       0.00000000      -0.61245708       1.05156397
O        2.08892782       6.00560414       3.76616448       0.00000000       0.61245426       1.05155445
O        2.08892782       6.06835785       6.29941236       0.00000000      -1.29640061       1.40954946
O        2.08892782       1.16818539       2.89922052       0.00000000       1.29639881       1.40954946
O        0.00000000       2.45008628       6.29941236       0.00000000      -1.29640086       1.40954920
O        0.00000000       4.78645699       2.89922054       0.00000000       1.29639881       1.40954972
H        0.00000000       4.80765726       1.42264039       0.00000000       0.32747652      -0.72556506
H        0.00000000       2.42888592       4.82283169       0.00000000      -0.32747627      -0.72555528
H        2.08892782       1.18938568       1.42264032       0.00000000       0.32747678      -0.72556506
H        2.08892782       6.04715750       4.82283177       0.00000000      -0.32747575      -0.72555554
H        0.00000000       3.84833606       0.10220797       0.00000000       0.54569273      -0.35485672
H        0.00000000       3.38820696       3.50239971       0.00000000      -0.54569119      -0.35485723
H        2.08892782       0.23006451       0.10220798       0.00000000       0.54569273      -0.35485723
H        2.08892782       7.00647856       3.50239969       0.00000000      -0.54569119      -0.35485672
H        2.93180240       5.55338095       6.71069266      -0.81707190       0.55666569      -0.69034557
H        1.24605338       1.68316215       3.31050095       0.81707010      -0.55666492      -0.69034583
H        2.93180227       1.68316215       3.31050095      -0.81707010      -0.55666492      -0.69034583
H        1.24605324       5.55338095       6.71069266       0.81707190       0.55666569      -0.69034557
H        0.84287457       1.93510937       6.71069265      -0.81707164       0.55666595      -0.69034583
H        3.33498118       5.30143373       3.31050096       0.81707036      -0.55666466      -0.69034557
H        0.84287447       5.30143373       3.31050096      -0.81707036      -0.55666466      -0.69034557
H        3.33498108       1.93510937       6.71069265       0.81707164       0.55666595      -0.69034583
24
Lattice="4.177855647482834 0.0 0.0 0.0 7.236543146262318 0.0 0.0 0.0 6.800383372376405" Properties=species:S:1:pos:R:3:forces:R:3 energy=-3790.9581367775127 free_energy=-3790.9581367775127 stress="-0.06351538934665246 -0.0 -0.0 -0.0 -0.038410205674253864 0.0 -0.0 0.0 -0.06190310457436223" pbc="T T T"
O        0.00000000       4.83322661       0.40807180       0.00000000      -0.45622837      -0.90687308
O        0.00000000       2.40331652       3.80826324       0.00000000       0.45622554      -0.90685894
O        2.08892782       1.21495505       0.40807177       0.00000000      -0.45622811      -0.90687385
O        2.08892782       6.02158811       3.80826328       0.00000000       0.45622580      -0.90685817
O        2.08892782       6.01645104       6.35364121       0.00000000       1.29947488      -0.72993542
O        2.08892782       1.22009213       2.95344936       0.00000000      -1.29947539      -0.72993387
O        0.00000000       2.39817947       6.35364120       0.00000000       1.29947488      -0.72993542
O        0.00000000       4.83836372       2.95344940       0.00000000      -1.29947513      -0.72993362
H        0.00000000       4.81986248       1.39564836       0.00000000      -0.00785086       0.64698983
H        0.00000000       2.41668070       4.79584004       0.00000000       0.00785009       0.64698083
H        2.08892782       1.20159092       1.39564830       0.00000000      -0.00785086       0.64699086
H        2.08892782       6.03495230       4.79584010       0.00000000       0.00785009       0.64697954
H        0.00000000       3.86352762       0.08718067       0.00000000       0.39626947       0.10580012
H        0.00000000       3.37301545       3.48737239       0.00000000      -0.39626588       0.10579730
H        2.08892782       0.24525607       0.08718066       0.00000000       0.39626922       0.10579987
H        2.08892782       6.99128704       3.48737239       0.00000000      -0.39626639       0.10579755
H        2.90089663       5.57507662       6.68353832       0.62229567      -0.64632546       0.44200837
H        1.27695909       1.66146650       3.28334660      -0.62229695       0.64632571       0.44200811
H        2.90089656       1.66146650       3.28334660       0.62229695       0.64632571       0.44200811
H        1.27695902       5.57507662       6.68353832      -0.62229567      -0.64632546       0.44200837
H        0.81196879       1.95680505       6.68353831       0.62229593      -0.64632546       0.44200837
H        3.36588690       5.27973809       3.28334662      -0.62229644       0.64632571       0.44200811
H        0.81196875       5.27973809       3.28334662       0.62229644       0.64632571       0.44200811
H        3.36588685       1.95680505       6.68353831      -0.62229593      -0.64632546       0.44200837
24
Lattice="4.177855647482834 0.0 0.0 0.0 7.236543146262318 0.0 0.0 0.0 6.800383372376405" Properties=species:S:1:pos:R:3:forces:R:3 energy=-3791.128904810213 free_energy=-3791.128904810213 stress="-0.03024227552943954 -0.0 -0.0 -0.0 -0.035258170581274145 -0.0 -0.0 -0.0 -0.036615207536538935" pbc="T T T"
O        0.00000000       4.83264024       0.39034237       0.00000000      -0.09548023       0.19941193
O        0.00000000       2.40390287       3.79053403       0.00000000       0.09548074       0.19940782
O        2.08892782       1.21436869       0.39034233       0.00000000      -0.09548023       0.19941219
O        2.08892782       6.02217447       3.79053409       0.00000000       0.09548049       0.19940756
O        2.08892782       6.04041263       6.33542694       0.00000000      -0.07735884       0.22078037
O        2.08892782       1.19613054       2.93523511       0.00000000       0.07735807       0.22078089
O        0.00000000       2.42214107       6.33542692       0.00000000      -0.07735884       0.22078011
O        0.00000000       4.81440213       2.93523514       0.00000000       0.07735781       0.22078089
H        0.00000000       4.81741673       1.40813451       0.00000000       0.07137717      -0.14531052
H        0.00000000       2.41912644       4.80832601       0.00000000      -0.07137742      -0.14530538
H        2.08892782       1.19914517       1.40813446       0.00000000       0.07137742      -0.14531052
H        2.08892782       6.03739803       4.80832606       0.00000000      -0.07137742      -0.14530564
H        0.00000000       3.86403314       0.09088591       0.00000000       0.11898783      -0.11548238
H        0.00000000       3.37250995       3.49107760       0.00000000      -0.11898783      -0.11548290
H        2.08892782       0.24576158       0.09088591       0.00000000       0.11898783      -0.11548264
H        2.08892782       6.99078154       3.49107760       0.00000000      -0.11898808      -0.11548264
H        2.91356874       5.56371780       6.69341447      -0.20162000      -0.02303580      -0.07969983
H        1.26428698       1.67282533       3.29322275       0.20161871       0.02303606      -0.07969983
H        2.91356867       1.67282533       3.29322275      -0.20161871       0.02303606      -0.07969983
H        1.26428691       5.56371780       6.69341447       0.20162000      -0.02303580      -0.07969983
H        0.82464091       1.94544622       6.69341446      -0.20161974      -0.02303580      -0.07969983
H        3.35321479       5.29109691       3.29322277       0.20161871       0.02303606      -0.07969983
H        0.82464086       5.29109691       3.29322277      -0.20161871       0.02303606      -0.07969983
H        3.35321474       1.94544622       6.69341446       0.20161974      -0.02303580      -0.07969983
24
Lattice="4.177855647482834 0.0 0.0 0.0 7.236543146262318 0.0 0.0 0.0 6.800383372376405" Properties=species:S:1:pos:R:3:forces:R:3 energy=-3791.1418364761676 free_energy=-3791.1418364761676 stress="-0.03446671871697222 -0.0 -0.0 -0.0 -0.038308290178966725 0.0 -0.0 0.0 -0.04087821334390999" pbc="T T T"
O        0.00000000       4.83064580       0.39399433       0.00000000      -0.00906442       0.02068555
O        0.00000000       2.40589732       3.79418593       0.00000000       0.00906442       0.02068658
O        2.08892782       1.21237425       0.39399428       0.00000000      -0.00906468       0.02068581
O        2.08892782       6.02416891       3.79418598       0.00000000       0.00906417       0.02068658
O        2.08892782       6.03918252       6.33994841       0.00000000       0.04021694       0.09053163
O        2.08892782       1.19736063       2.93975659       0.00000000      -0.04021720       0.09053291
O        0.00000000       2.42091096       6.33994840       0.00000000       0.04021694       0.09053163
O        0.00000000       4.81563222       2.93975663       0.00000000      -0.04021720       0.09053291
H        0.00000000       4.81900625       1.40581506       0.00000000       0.03010685      -0.00922358
H        0.00000000       2.41753691       4.80600664       0.00000000      -0.03010736      -0.00922280
H        2.08892782       1.20073470       1.40581501       0.00000000       0.03010710      -0.00922358
H        2.08892782       6.03580851       4.80600669       0.00000000      -0.03010710      -0.00922306
H        0.00000000       3.86655618       0.08836672       0.00000000       0.05178870      -0.07760746
H        0.00000000       3.36998692       3.48855840       0.00000000      -0.05178793      -0.07760798
H        2.08892782       0.24828462       0.08836671       0.00000000       0.05178870      -0.07760746
H        2.08892782       6.98825851       3.48855840       0.00000000      -0.05178793      -0.07760798
H        2.91000074       5.56301053       6.69174707      -0.09211877      -0.07797565      -0.01219346
H        1.26785495       1.67353260       3.29155535       0.09211826       0.07797565      -0.01219371
H        2.91000069       1.67353260       3.29155535      -0.09211826       0.07797565      -0.01219371
H        1.26785491       5.56301053       6.69174707       0.09211877      -0.07797565      -0.01219346
H        0.82107291       1.94473896       6.69174706      -0.09211877      -0.07797565      -0.01219371
H        3.35678277       5.29180418       3.29155537       0.09211851       0.07797565      -0.01219371
H        0.82107288       5.29180418       3.29155537      -0.09211851       0.07797565      -0.01219371
H        3.35678274       1.94473896       6.69174706       0.09211877      -0.07797565      -0.01219371
24
Lattice="4.177855647482834 0.0 0.0 0.0 7.236543146262318 0.0 0.0 0.0 6.800383372376405" Properties=species:S:1:pos:R:3:forces:R:3 energy=-3791.1471158928084 free_energy=-3791.1471158928084 stress="-0.03707061371367786 -0.0 -0.0 -0.0 -0.0400169815008529 -0.0 -0.0 -0.0 -0.041721082034663085" pbc="T T T"
O        0.00000000       4.83003826       0.39537583       0.00000000       0.04373369      -0.03836137
O        0.00000000       2.40650485       3.79556746       0.00000000      -0.04373267      -0.03836112
O        2.08892782       1.21176670       0.39537579       0.00000000       0.04373369      -0.03836137
O        2.08892782       6.02477644       3.79556750       0.00000000      -0.04373292      -0.03836112
O        2.08892782       6.04027803       6.34384703       0.00000000       0.06428041       0.01552149
O        2.08892782       1.19626512       2.94365525       0.00000000      -0.06428066       0.01552175
O        0.00000000       2.42200646       6.34384701       0.00000000       0.06428041       0.01552149
O        0.00000000       4.81453671       2.94365528       0.00000000      -0.06428066       0.01552175
H        0.00000000       4.82036297       1.40523346       0.00000000       0.00004705       0.02705752
H        0.00000000       2.41618018       4.80542508       0.00000000      -0.00004705       0.02705778
H        2.08892782       1.20209142       1.40523342       0.00000000       0.00004705       0.02705752
H        2.08892782       6.03445178       4.80542512       0.00000000      -0.00004705       0.02705752
H        0.00000000       3.86869304       0.08524682       0.00000000       0.01127274      -0.04255150
H        0.00000000       3.36785009       3.48543847       0.00000000      -0.01127326      -0.04255150
H        2.08892782       0.25042148       0.08524681       0.00000000       0.01127274      -0.04255150
H        2.08892782       6.98612167       3.48543848       0.00000000      -0.01127326      -0.04255150
H        2.90646430       5.56028834       6.69095775      -0.01201374      -0.08562853       0.01916680
H        1.27139137       1.67625479       3.29076602       0.01201322       0.08562853       0.01916680
H        2.90646428       1.67625479       3.29076602      -0.01201322       0.08562853       0.01916680
H        1.27139135       5.56028834       6.69095775       0.01201374      -0.08562853       0.01916680
H        0.81753647       1.94201677       6.69095774      -0.01201374      -0.08562853       0.01916680
H        3.36031919       5.29452637       3.29076604       0.01201322       0.08562853       0.01916680
H        0.81753646       5.29452637       3.29076604      -0.01201322       0.08562853       0.01916680
H        3.36031917       1.94201677       6.69095774       0.01201374      -0.08562853       0.01916680
24
Lattice="4.177855647482834 0.0 0.0 0.0 7.236543146262318 0.0 0.0 0.0 6.800383372376405" Properties=species:S:1:pos:R:3:forces:R:3 energy=-3791.1500385314926 free_energy=-3791.1500385314926 stress="-0.03810445918839245 -0.0 -0.0 -0.0 -0.040229994067579176 0.0 -0.0 0.0 -0.04112703405762904" pbc="T T T"
O        0.00000000       4.83080896       0.39562257       0.00000000       0.04797627      -0.05241451
O        0.00000000       2.40573418       3.79581420       0.00000000      -0.04797704      -0.05241245
O        2.08892782       1.21253740       0.39562254       0.00000000       0.04797627      -0.05241451
O        2.08892782       6.02400577       3.79581424       0.00000000      -0.04797704      -0.05241245
O        2.08892782       6.04239769       6.34683059       0.00000000       0.01764214      -0.00318508
O        2.08892782       1.19414544       2.94663884       0.00000000      -0.01764162      -0.00318483
O        0.00000000       2.42412612       6.34683057       0.00000000       0.01764214      -0.00318534
O        0.00000000       4.81241702       2.94663888       0.00000000      -0.01764162      -0.00318483
H        0.00000000       4.82121244       1.40520899       0.00000000      -0.01684972       0.02552771
H        0.00000000       2.41533070       4.80540067       0.00000000       0.01684972       0.02552617
H        2.08892782       1.20294089       1.40520896       0.00000000      -0.01684972       0.02552771
H        2.08892782       6.03360230       4.80540070       0.00000000       0.01684972       0.02552617
H        0.00000000       3.87038662       0.08215313       0.00000000       0.00327121      -0.01072767
H        0.00000000       3.36615650       3.48234476       0.00000000      -0.00327070      -0.01072767
H        2.08892782       0.25211505       0.08215311       0.00000000       0.00327121      -0.01072767
H        2.08892782       6.98442808       3.48234478       0.00000000      -0.00327070      -0.01072767
H        2.90384689       5.55639646       6.69090166       0.02307951      -0.05407107       0.02039965
H        1.27400875       1.68014668       3.29070992      -0.02307925       0.05407081       0.02039939
H        2.90384690       1.68014668       3.29070992       0.02307925       0.05407081       0.02039939
H        1.27400875       5.55639646       6.69090166      -0.02307951      -0.05407107       0.02039965
H        0.81491907       1.93812489       6.69090164       0.02307951      -0.05407081       0.02039965
H        3.36293657       5.29841826       3.29070995      -0.02307925       0.05407081       0.02039965
H        0.81491907       5.29841826       3.29070995       0.02307925       0.05407081       0.02039965
H        3.36293658       1.93812489       6.69090164      -0.02307951      -0.05407081       0.02039965
24
Lattice="4.177855647482834 0.0 0.0 0.0 7.236543146262318 0.0 0.0 0.0 6.800383372376405" Properties=species:S:1:pos:R:3:forces:R:3 energy=-3791.1511590962796 free_energy=-3791.1511590962796 stress="-0.03836337963587869 -0.0 -0.0 -0.0 -0.03982416840166102 -0.0 -0.0 -0.0 -0.03973786158583227" pbc="T T T"
O        0.00000000       4.83211484       0.39481125       0.00000000       0.02585810      -0.01772493
O        0.00000000       2.40442829       3.79500293       0.00000000      -0.02585733      -0.01772621
O        2.08892782       1.21384328       0.39481122       0.00000000       0.02585810      -0.01772493
O        2.08892782       6.02269987       3.79500296       0.00000000      -0.02585733      -0.01772621
O        2.08892782       6.04332638       6.34850621       0.00000000      -0.02459414      -0.00197332
O        2.08892782       1.19321676       2.94831449       0.00000000       0.02459389      -0.00197384
O        0.00000000       2.42505481       6.34850619       0.00000000      -0.02459414      -0.00197332
O        0.00000000       4.81148834       2.94831452       0.00000000       0.02459389      -0.00197384
H        0.00000000       4.82123723       1.40545068       0.00000000      -0.01671140      -0.00454365
H        0.00000000       2.41530590       4.80564234       0.00000000       0.01671166      -0.00454314
H        2.08892782       1.20296568       1.40545065       0.00000000      -0.01671166      -0.00454365
H        2.08892782       6.03357750       4.80564237       0.00000000       0.01671166      -0.00454288
H        0.00000000       3.87148742       0.08042053       0.00000000       0.00761946       0.00168587
H        0.00000000       3.36505572       3.48061216       0.00000000      -0.00762049       0.00168664
H        2.08892782       0.25321585       0.08042051       0.00000000       0.00761946       0.00168587
H        2.08892782       6.98332730       3.48061217       0.00000000      -0.00762049       0.00168639
H        2.90292029       5.55343707       6.69121495       0.02534465      -0.02325229       0.01127789
H        1.27493535       1.68310606       3.29102321      -0.02534465       0.02325254       0.01127814
H        2.90292030       1.68310606       3.29102321       0.02534465       0.02325254       0.01127814
H        1.27493536       5.55343707       6.69121495      -0.02534465      -0.02325229       0.01127789
H        0.81399247       1.93516551       6.69121493       0.02534465      -0.02325229       0.01127789
H        3.36386317       5.30137765       3.29102324      -0.02534465       0.02325254       0.01127814
H        0.81399247       5.30137765       3.29102324       0.02534465       0.02325254       0.01127814
H        3.36386318       1.93516551       6.69121493      -0.02534465      -0.02325229       0.01127789
24
Lattice="4.177855647482834 0.0 0.0 0.0 7.236543146262318 0.0 0.0 0.0 6.800383372376405" Properties=species:S:1:pos:R:3:forces:R:3 energy=-3791.1515837299253 free_energy=-3791.1515837299253 stress="-0.038316553597503515 -0.0 -0.0 -0.0 -0.0393458082841421 0.0 -0.0 0.0 -0.03912728677172463" pbc="T T T"
O        0.00000000       4.83307854       0.39425295       0.00000000       0.00297348      -0.00293569
O        0.00000000       2.40346461       3.79444460       0.00000000      -0.00297425      -0.00293466
O        2.08892782       1.21480698       0.39425292       0.00000000       0.00297348      -0.00293594
O        2.08892782       6.02173620       3.79444463       0.00000000      -0.00297425      -0.00293466
O        2.08892782       6.04291606       6.34913823       0.00000000      -0.03975851       0.00349644
O        2.08892782       1.19362707       2.94894650       0.00000000       0.03975877       0.00349644
O        0.00000000       2.42464449       6.34913820       0.00000000      -0.03975851       0.00349644
O        0.00000000       4.81189866       2.94894654       0.00000000       0.03975877       0.00349644
H        0.00000000       4.82085893       1.40526265       0.00000000      -0.01053175      -0.01020471
H        0.00000000       2.41568421       4.80545433       0.00000000       0.01053201      -0.01020574
H        2.08892782       1.20258737       1.40526262       0.00000000      -0.01053201      -0.01020471
H        2.08892782       6.03395581       4.80545436       0.00000000       0.01053201      -0.01020574
H        0.00000000       3.87216684       0.07983521       0.00000000       0.00990312       0.00195507
H        0.00000000       3.36437628       3.48002685       0.00000000      -0.00990235       0.00195507
H        2.08892782       0.25389527       0.07983519       0.00000000       0.00990312       0.00195532
H        2.08892782       6.98264786       3.48002687       0.00000000      -0.00990235       0.00195507
H        2.90313488       5.55186378       6.69156477       0.01312960      -0.00696640       0.00384431
H        1.27472075       1.68467936       3.29137303      -0.01312934       0.00696640       0.00384431
H        2.90313490       1.68467936       3.29137303       0.01312934       0.00696640       0.00384431
H        1.27472077       5.55186378       6.69156477      -0.01312960      -0.00696640       0.00384431
H        0.81420706       1.93359221       6.69156475       0.01312960      -0.00696640       0.00384431
H        3.36364858       5.30295094       3.29137306      -0.01312934       0.00696640       0.00384431
H        0.81420707       5.30295094       3.29137306       0.01312934       0.00696640       0.00384431
H        3.36364859       1.93359221       6.69156475      -0.01312960      -0.00696640       0.00384431
24
Lattice="4.177855647482834 0.0 0.0 0.0 7.236543146262318 0.0 0.0 0.0 6.800383372376405" Properties=species:S:1:pos:R:3:forces:R:3 energy=-3791.151902511287 free_energy=-3791.151902511287 stress="-0.03846896776162663 -0.0 -0.0 -0.0 -0.03906026126581507 -0.0 -0.0 -0.0 -0.038666371648894506" pbc="T T T"
O        0.00000000       4.83382736       0.39366820       0.00000000      -0.01497642       0.01253001
O        0.00000000       2.40271577       3.79385989       0.00000000       0.01497745       0.01252796
O        2.08892782       1.21555579       0.39366817       0.00000000      -0.01497642       0.01253001
O        2.08892782       6.02098735       3.79385991       0.00000000       0.01497745       0.01252796
O        2.08892782       6.04145649       6.34967069       0.00000000      -0.03422241       0.00086158
O        2.08892782       1.19508665       2.94947897       0.00000000       0.03422190       0.00086132
O        0.00000000       2.42318493       6.34967066       0.00000000      -0.03422241       0.00086158
O        0.00000000       4.81335823       2.94947900       0.00000000       0.03422190       0.00086132
H        0.00000000       4.82027333       1.40491830       0.00000000      -0.00249217      -0.01064951
H        0.00000000       2.41626982       4.80510995       0.00000000       0.00249217      -0.01064822
H        2.08892782       1.20200177       1.40491827       0.00000000      -0.00249217      -0.01064951
H        2.08892782       6.03454141       4.80510998       0.00000000       0.00249217      -0.01064822
H        0.00000000       3.87294650       0.07945982       0.00000000       0.00371782      -0.00280867