36
Lattice="6.491374676997684 -3.747796823403464 2.0843318328023193 0.0 7.495593646806928 2.0843318328023193 -6.491374676997684 -3.747796823403464 2.0843318328023193" Properties=species:S:1:pos:R:3:forces:R:3 energy=-5686.376780927826 free_energy=-5686.376780927826 stress="0.017725032761425414 -0.0 0.0 -0.0 0.017725032761425414 0.0 0.0 0.0 -0.0031116361579109422" pbc="T T T"
O       -3.77148926      -4.04387325       2.39906626      -0.88508581       1.86427065       0.92749718
O        3.77148926       4.04387403       3.85393002       0.88508581      -1.86427065      -0.92749718
O        5.38784168      -1.24426851       2.39906626      -1.17196281      -1.69864224       0.92749718
O       -5.38784246       1.24426851       3.85393002       1.17196281       1.69864224      -0.92749718
O       -1.61635243       5.28814255       2.39906626       2.05704862      -0.16562841       0.92749718
O        1.61635243      -5.28814255       3.85393002      -2.05704862       0.16562841      -0.92749718
O        0.94774084       2.58598074       3.25155813      -0.94052831       0.76572466      -0.69336404
O       -0.94774084      -2.58598074       3.00143815       0.94052831      -0.76572466       0.69336404
O       -2.71339535      -0.47222262       3.25155813      -0.19287285      -1.19738383      -0.69336404
O        2.71339535       0.47222262       3.00143815       0.19287285       1.19738383       0.69336404
O        1.76565450      -2.11375812       3.25155813       1.13340115       0.43165917      -0.69336404
O       -1.76565450       2.11375735       3.00143815      -1.13340115      -0.43165917       0.69336404
H       -4.18693733      -3.13690661       2.17604246       0.14062572      -0.79362010      -1.34634377
H        4.18693733       3.13690661       4.07695381      -0.14062572       0.79362010       1.34634377
H        4.81010983      -2.05754063       2.17604246       0.61698223       0.51859536      -1.34634377
H       -4.81010983       2.05754063       4.07695381      -0.61698223      -0.51859536       1.34634377
H       -0.62317250       5.19444724       2.17604246      -0.75760794       0.27502473      -1.34634377
H        0.62317250      -5.19444724       4.07695381       0.75760794      -0.27502473       1.34634377
H       -3.79096337      -3.74779760       3.36619642       0.78568979      -1.23744624       0.14303818
H        3.79096337       3.74779760       2.88679986      -0.78568979       1.23744624      -0.14303818
H        5.14116980      -1.40917182       3.36619642       0.67881494       1.29915040       0.14303818
H       -5.14116980       1.40917182       2.88679986      -0.67881494      -1.29915040      -0.14303818
H       -1.35020643       5.15696942       3.36619642      -1.46450473      -0.06170416       0.14303818
H        1.35020643      -5.15696942       2.88679986       1.46450473       0.06170416      -0.14303818
H        2.10320533      -1.16931289       3.15776323      -0.42130276      -0.20642693       0.35077226
H       -2.10320611       1.16931289       3.09523304       0.42130276       0.20642693      -0.35077226
H       -0.03894823       2.40608615       3.15776323       0.38942237      -0.26164548       0.35077226
H        0.03894823      -2.40608615       3.09523304      -0.38942237       0.26164548      -0.35077226
H       -2.06425710      -1.23677326       3.15776323       0.03188065       0.46807242       0.35077226
H        2.06425710       1.23677326       3.09523304      -0.03188065      -0.46807242      -0.35077226
H        2.47321432      -2.60471965       2.71796921      -0.81494431      -0.20739778       0.46548974
H       -2.47321432       2.60471965       3.53502707       0.81494431       0.20739778      -0.46548974
H        1.01914645       3.44422592       2.71796921       0.58708390      -0.60206366       0.46548974
H       -1.01914568      -3.44422592       3.53502707      -0.58708390       0.60206366      -0.46548974
H       -3.49236000      -0.83950627       2.71796921       0.22786042       0.80946144       0.46548974
H        3.49236000       0.83950627       3.53502707      -0.22786042      -0.80946144      -0.46548974
36
Lattice="6.491374676997684 -3.747796823403464 2.0843318328023193 0.0 7.495593646806928 2.0843318328023193 -6.491374676997684 -3.747796823403464 2.0843318328023193" Properties=species:S:1:pos:R:3:forces:R:3 energy=-5687.320786692052 free_energy=-5687.320786692052 stress="-0.016154983239434352 -0.0 0.0 -0.0 -0.016154983239434352 -0.0 0.0 -0.0 -0.029359926061232864" pbc="T T T"
O       -3.78970508      -4.00550279       2.41815537      -0.04406228      -0.07684770       0.08005104
O        3.78970527       4.00550298       3.83484009       0.04406228       0.07684770      -0.08005104
O        5.36371980      -1.27922939       2.41815537       0.08858325       0.00026482       0.08005104
O       -5.36372006       1.27922946       3.83484009      -0.08858325      -0.00026482      -0.08005104
O       -1.57401472       5.28473218       2.41815537      -0.04452097       0.07658288       0.08005104
O        1.57401479      -5.28473245       3.83484009       0.04452097      -0.07658288      -0.08005104
O        0.92838300       2.60173984       3.23728698       0.01632111      -0.23618334       0.05871037
O       -0.92838281      -2.60173973       3.01570846      -0.01632111       0.23618334      -0.05871037
O       -2.71736435      -0.49686667       3.23728698       0.19638009       0.13222618       0.05871037
O        2.71736416       0.49686679       3.01570846      -0.19638009      -0.13222618      -0.05871037
O        1.78898135      -2.10487316       3.23728698      -0.21270145       0.10395716       0.05871037
O       -1.78898135       2.10487294       3.01570846       0.21270145      -0.10395716      -0.05871037
H       -4.18404232      -3.15324005       2.14833239      -0.42272073       0.50747149      -1.19654076
H        4.18404223       3.15324004       4.10466307       0.42272073      -0.50747149       1.19654076
H        4.82280722      -2.04686682       2.14833239      -0.22812267      -0.61982252      -1.19654076
H       -4.82280716       2.04686675       4.10466307       0.22812267       0.61982252       1.19654076
H       -0.63876490       5.20010687       2.14833239       0.65084340       0.11235129      -1.19654076
H        0.63876494      -5.20010679       4.10466307      -0.65084340      -0.11235129       1.19654076
H       -3.77479191      -3.77326548       3.36913981       0.57687559      -0.55043051       0.91453522
H        3.77479205       3.77326567       2.88385568      -0.57687559       0.55043051      -0.91453522
H        5.15513980      -1.38243287       3.36913981       0.18824897       0.77480399       0.91453522
H       -5.15514003       1.38243289       2.88385568      -0.18824897      -0.77480399      -0.91453522
H       -1.38034789       5.15569835       3.36913981      -0.76512456      -0.22437375       0.91453522
H        1.38034799      -5.15569856       2.88385568       0.76512456       0.22437375      -0.91453522
H        2.09453407      -1.17356125       3.16498219       0.04948062       0.47177146       0.16436445
H       -2.09453427       1.17356092       3.08801331      -0.04948062      -0.47177146      -0.16436445
H       -0.03093315       2.40070030       3.16498219      -0.43330647      -0.19303431       0.16436445
H        0.03093354      -2.40070030       3.08801331       0.43330647       0.19303431      -0.16436445
H       -2.06360092      -1.22713904       3.16498219       0.38382585      -0.27873741       0.16436445
H        2.06360072       1.22713938       3.08801331      -0.38382585       0.27873741      -0.16436445
H        2.45644069      -2.60898748       2.72754929       0.12602828      -0.56216734      -0.19169014
H       -2.45644069       2.60898737       3.52544617      -0.12602828       0.56216734       0.19169014
H        1.03122915       3.43183373       2.72754929       0.42383710       0.39022738      -0.19169014
H       -1.03122905      -3.43183367       3.52544617      -0.42383710      -0.39022738       0.19169014
H       -3.48766984      -0.82284625       2.72754929      -0.54986538       0.17193995      -0.19169014
H        3.48766974       0.82284631       3.52544617       0.54986538      -0.17193995       0.19169014
36
Lattice="6.491374676997684 -3.747796823403464 2.0843318328023193 0.0 7.495593646806928 2.0843318328023193 -6.491374676997684 -3.747796823403464 2.0843318328023193" Properties=species:S:1:pos:R:3:forces:R:3 energy=-5687.816418919488 free_energy=-5687.816418919488 stress="-0.010136460071801946 -0.0 -0.0 -0.0 -0.010136460071801946 -0.0 -0.0 -0.0 -0.01639462237700141" pbc="T T T"
O       -3.79810271      -3.99194739       2.42778062       0.00320437      -0.12281183       0.00544405
O        3.79810291       3.99194759       3.82521484      -0.00320437       0.12281183      -0.00544405
O        5.35617930      -1.29327966       2.42778062       0.10475600       0.06418116       0.00544405
O       -5.35617956       1.29327973       3.82521484      -0.10475600      -0.06418116      -0.00544405
O       -1.55807658       5.28522705       2.42778062      -0.10796036       0.05863067       0.00544405
O        1.55807666      -5.28522731       3.82521484       0.10796036      -0.05863067      -0.00544405
O        0.92099745       2.60232321       3.23297934       0.18928487      -0.17263672       0.01521553
O       -0.92099726      -2.60232310       3.02001610      -0.18928487       0.17263672      -0.01521553
O       -2.71417679      -0.50355444       3.23297934       0.05486528       0.25024367       0.01521553
O        2.71417660       0.50355455       3.02001610      -0.05486528      -0.25024367      -0.01521553
O        1.79317934      -2.09876877       3.23297934      -0.24415016      -0.07760721       0.01521553
O       -1.79317934       2.09876855       3.02001610       0.24415016       0.07760721      -0.01521553
H       -4.19317568      -3.14744594       2.10804443      -0.24212567       0.20512492      -0.53731145
H        4.19317559       3.14744594       4.14495102       0.24212567      -0.20512492       0.53731145
H        4.82235605      -2.05767360       2.10804443      -0.05658047      -0.31224942      -0.53731145
H       -4.82235600       2.05767352       4.14495102       0.05658047       0.31224942       0.53731145
H       -0.62918037       5.20511954       2.10804443       0.29870614       0.10712450      -0.53731145
H        0.62918041      -5.20511946       4.14495102      -0.29870614      -0.10712450       0.53731145
H       -3.75423797      -3.79691364       3.39260070       0.35183310      -0.17123187       0.36637423
H        3.75423811       3.79691383       2.86039478      -0.35183310       0.17123187      -0.36637423
H        5.16534274      -1.35280856       3.39260070      -0.02762548       0.39031249       0.36637423
H       -5.16534297       1.35280858       2.86039478       0.02762548      -0.39031249      -0.36637423
H       -1.41110476       5.14972219       3.39260070      -0.32420762      -0.21908062       0.36637423
H        1.41110486      -5.14972241       2.86039478       0.32420762       0.21908062      -0.36637423
H        2.09225298      -1.16377758       3.17188869       0.15200028       0.36797628       0.10572402
H       -2.09225318       1.16377724       3.08110681      -0.15200028      -0.36797628      -0.10572402
H       -0.03826552       2.39383298       3.17188869      -0.39467693      -0.05235203       0.10572402
H        0.03826591      -2.39383298       3.08110681       0.39467693       0.05235203      -0.10572402
H       -2.05398747      -1.23005540       3.17188869       0.24267666      -0.31562425       0.10572402
H        2.05398727       1.23005574       3.08110681      -0.24267666       0.31562425      -0.10572402
H        2.45276674      -2.62439761       2.72673195       0.08481169      -0.30870310      -0.12399659
H       -2.45276674       2.62439750       3.52626352      -0.08481169       0.30870310       0.12399659
H        1.04641169       3.43635706       2.72673195       0.22493887       0.22780077      -0.12399659
H       -1.04641159      -3.43635701       3.52626352      -0.22493887      -0.22780077       0.12399659
H       -3.49917843      -0.81195945       2.72673195      -0.30975057       0.08090259      -0.12399659
H        3.49917833       0.81195951       3.52626352       0.30975057      -0.08090259       0.12399659
36
Lattice="6.491374676997684 -3.747796823403464 2.0843318328023193 0.0 7.495593646806928 2.0843318328023193 -6.491374676997684 -3.747796823403464 2.0843318328023193" Properties=species:S:1:pos:R:3:forces:R:3 energy=-5687.957085583298 free_energy=-5687.957085583298 stress="0.00043979749768053737 0.0 0.0 0.0 0.00043979749768053737 0.0 0.0 0.0 -0.005033340046523394" pbc="T T T"
O       -3.80446983      -3.98322784       2.43486396       0.01299307      -0.10966501      -0.07486384
O        3.80447003       3.98322803       3.81813150      -0.01299307       0.10966501       0.07486384
O        5.35181150      -1.30315352       2.43486396       0.08847629       0.06608481      -0.07486384
O       -5.35181177       1.30315359       3.81813150      -0.08847629      -0.06608481       0.07486384
O       -1.54734167       5.28638136       2.43486396      -0.10146910       0.04358020      -0.07486384
O        1.54734174      -5.28638163       3.81813150       0.10146910      -0.04358020       0.07486384
O        0.92119621       2.60089674       3.22870157      -0.11819181      -0.13122576      -0.08967648
O       -0.92119602      -2.60089663       3.02429386       0.11819181       0.13122576       0.08967648
O       -2.71304081      -0.50266907       3.22870157       0.17274085      -0.03674415      -0.08967648
O        2.71304061       0.50266918       3.02429386      -0.17274085       0.03674415       0.08967648
O        1.79184460      -2.09822767       3.22870157      -0.05454904       0.16796991      -0.08967648
O       -1.79184460       2.09822744       3.02429386       0.05454904      -0.16796991       0.08967648
H       -4.20213250      -3.14431767       2.07555497      -0.07827235      -0.06228446      -0.01461981
H        4.20213240       3.14431766       4.17744048       0.07827235       0.06228446       0.01461981
H        4.82412529      -2.06699457       2.07555497       0.09307599      -0.03664362      -0.01461981
H       -4.82412524       2.06699449       4.17744048      -0.09307599       0.03664362       0.01461981
H       -0.62199280       5.21131223       2.07555497      -0.01480364       0.09892808      -0.01461981
H        0.62199284      -5.21131215       4.17744048       0.01480364      -0.09892808       0.01461981
H       -3.73419781      -3.81352920       3.40943776       0.17030062       0.10640099      -0.04511720
H        3.73419794       3.81352939       2.84355773      -0.17030062      -0.10640099       0.04511720
H        5.16971215      -1.32714548       3.40943776      -0.17729633       0.09428415      -0.04511720
H       -5.16971239       1.32714551       2.84355773       0.17729633      -0.09428415       0.04511720
H       -1.43551434       5.14067468       3.40943776       0.00699571      -0.20068514      -0.04511720
H        1.43551444      -5.14067490       2.84355773      -0.00699571       0.20068514       0.04511720
H        2.09491128      -1.15056213       3.17871211       0.07205799      -0.12612289       0.09106847
H       -2.09491147       1.15056179       3.07428339      -0.07205799       0.12612289      -0.09106847
H       -0.05103958       2.38952740       3.17871211       0.07319674       0.12546546       0.09106847
H        0.05103997      -2.38952740       3.07428339      -0.07319674      -0.12546546      -0.09106847
H       -2.04387170      -1.23896528       3.17871211      -0.14525447       0.00065743       0.09106847
H        2.04387150       1.23896561       3.07428339       0.14525447      -0.00065743      -0.09106847
H        2.45033688      -2.63866070       2.72504139      -0.01501936      -0.07550841      -0.02794069
H       -2.45033688       2.63866059       3.52795408       0.01501936       0.07550841       0.02794069
H        1.05997881       3.44138429       2.72504139       0.07290183       0.02474713      -0.02794069
H       -1.05997872      -3.44138423       3.52795408      -0.07290183      -0.02474713       0.02794069
H       -3.51031570      -0.80272359       2.72504139      -0.05788273       0.05076129      -0.02794069
H        3.51031560       0.80272364       3.52795408       0.05788273      -0.05076129       0.02794069
36
Lattice="6.491374676997684 -3.747796823403464 2.0843318328023193 0.0 7.495593646806928 2.0843318328023193 -6.491374676997684 -3.747796823403464 2.0843318328023193" Properties=species:S:1:pos:R:3:forces:R:3 energy=-5687.97061848478 free_energy=-5687.97061848478 stress="0.0001368054846647183 -0.0 -0.0 -0.0 0.0001368054846647183 0.0 -0.0 0.0 -0.0021631793414099085" pbc="T T T"
O       -3.80474774      -3.98470480       2.43389040       0.00696075      -0.05369312      -0.02777306
O        3.80474793       3.98470500       3.81910506      -0.00696075       0.05369312       0.02777306
O        5.35322954      -1.30265571       2.43389040       0.04301918       0.03287464      -0.02777306
O       -5.35322981       1.30265578       3.81910506      -0.04301918      -0.03287464       0.02777306
O       -1.54848180       5.28736051       2.43389040      -0.04997993       0.02081822      -0.02777306
O        1.54848187      -5.28736078       3.81910506       0.04997993      -0.02081822       0.02777306
O        0.91859866       2.59812413       3.22642420       0.09725378       0.02375674      -0.12059399
O       -0.91859846      -2.59812402       3.02657123      -0.09725378      -0.02375674       0.12059399
O       -2.70934088      -0.50353231       3.22642420      -0.06920098       0.07234596      -0.12059399
O        2.70934069       0.50353243       3.02657123       0.06920098      -0.07234596       0.12059399
O        1.79074223      -2.09459182       3.22642420      -0.02805279      -0.09610269      -0.12059399
O       -1.79074223       2.09459159       3.02657123       0.02805279       0.09610269       0.12059399
H       -4.20438674      -3.14551828       2.07283059      -0.05203784      -0.10525993       0.01774293
H        4.20438665       3.14551827       4.18016486       0.05203784       0.10525993      -0.01774293
H        4.82629218      -2.06834649       2.07283059       0.11717674       0.00756367       0.01774293
H       -4.82629212       2.06834641       4.18016486      -0.11717674      -0.00756367      -0.01774293
H       -0.62190544       5.21386477       2.07283059      -0.06513890       0.09769601       0.01774293
H        0.62190548      -5.21386469       4.18016486       0.06513890      -0.09769601      -0.01774293
H       -3.72911615      -3.81258677       3.40966544       0.14547842       0.09819737      -0.11679570
H        3.72911629       3.81258696       2.84333005      -0.14547842      -0.09819737       0.11679570
H        5.16635515      -1.32321586       3.40966544      -0.15778063       0.07688935      -0.11679570
H       -5.16635539       1.32321588       2.84333005       0.15778063      -0.07688935       0.11679570
H       -1.43723900       5.13580263       3.40966544       0.01230221      -0.17508673      -0.11679570
H        1.43723910      -5.13580284       2.84333005      -0.01230221       0.17508673       0.11679570
H        2.09656516      -1.15233498       3.18115142       0.12047855       0.03430494       0.06766501
H       -2.09656536       1.15233465       3.07184408      -0.12047855      -0.03430494      -0.06766501
H       -0.05033119       2.39184614       3.18115142      -0.08994824       0.08718508       0.06766501
H        0.05033158      -2.39184614       3.07184408       0.08994824      -0.08718508      -0.06766501
H       -2.04623398      -1.23951116       3.18115142      -0.03053031      -0.12149002       0.06766501
H        2.04623378       1.23951149       3.07184408       0.03053031       0.12149002      -0.06766501
H        2.44974860      -2.64126757       2.72439334      -0.08126280       0.01136376       0.02745038
H       -2.44974860       2.64126746       3.52860213       0.08126280      -0.01136376      -0.02745038
H        1.06253058       3.44217825       2.72439334       0.03078999      -0.07605760       0.02745038
H       -1.06253048      -3.44217820       3.52860213      -0.03078999       0.07605760      -0.02745038
H       -3.51227917      -0.80091068       2.72439334       0.05047281       0.06469384       0.02745038
H        3.51227908       0.80091074       3.52860213      -0.05047281      -0.06469384      -0.02745038
36
Lattice="6.491374676997684 -3.747796823403464 2.0843318328023193 0.0 7.495593646806928 2.0843318328023193 -6.491374676997684 -3.747796823403464 2.0843318328023193" Properties=species:S:1:pos:R:3:forces:R:3 energy=-5687.994480011234 free_energy=-5687.994480011234 stress="0.0003066646434766169 -0.0 0.0 -0.0 0.0003066646434766169 0.0 0.0 0.0 5.417129929676765e-05" pbc="T T T"
O       -3.80486954      -3.98818138       2.43191009      -0.00773491       0.03164488       0.01980546
O        3.80486974       3.98818158       3.82108537       0.00773491      -0.03164488      -0.01980546
O        5.35630125      -1.30102291       2.43191009      -0.02353794      -0.02252106       0.01980546
O       -5.35630152       1.30102298       3.82108537       0.02353794       0.02252106      -0.01980546
O       -1.55143171       5.28920429       2.43191009       0.03127284      -0.00912382       0.01980546
O        1.55143178      -5.28920456       3.82108537      -0.03127284       0.00912382      -0.01980546
O        0.91804908       2.59509447       3.22042608       0.16527925       0.04172592      -0.07263212
O       -0.91804888      -2.59509436       3.03256935      -0.16527925      -0.04172592       0.07263212
O       -2.70644233      -0.50249343       3.22042608      -0.11877545       0.12227318      -0.07263212
O        2.70644214       0.50249354       3.03256935       0.11877545      -0.12227318       0.07263212
O        1.78839325      -2.09260104       3.22042608      -0.04650406      -0.16399910      -0.07263212
O       -1.78839325       2.09260081       3.03256935       0.04650406       0.16399910       0.07263212
H       -4.20888319      -3.14946168       2.06923653      -0.01553152      -0.15314416       0.04244171
H        4.20888310       3.14946168       4.18375893       0.01553152       0.15314416      -0.04244171
H        4.83195549      -2.07026883       2.06923653       0.14039252       0.06312135       0.04244171
H       -4.83195544       2.07026876       4.18375893      -0.14039252      -0.06312135      -0.04244171
H       -0.62307230       5.21973052       2.06923653      -0.12486100       0.09002281       0.04244171
H        0.62307234      -5.21973044       4.18375893       0.12486100      -0.09002281      -0.04244171
H       -3.71854710      -3.80903164       3.40738722       0.11131745       0.07044231      -0.17498954
H        3.71854724       3.80903183       2.84560827      -0.11131745      -0.07044231       0.17498954
H        5.15799180      -1.31584036       3.40738722      -0.11666355       0.06118249      -0.17498954
H       -5.15799203       1.31584038       2.84560827       0.11666355      -0.06118249       0.17498954
H       -1.43944469       5.12487200       3.40738722       0.00534609      -0.13162480      -0.17498954
H        1.43944479      -5.12487221       2.84560827      -0.00534609       0.13162480       0.17498954
H        2.10193183      -1.15331003       3.18609621       0.11971596       0.06865488       0.04011538
H       -2.10193202       1.15330969       3.06689928      -0.11971596      -0.06865488      -0.04011538
H       -0.05217010       2.39698133       3.18609621      -0.11931487       0.06934985       0.04011538
H        0.05217049      -2.39698133       3.06689928       0.11931487      -0.06934985      -0.04011538
H       -2.04976173      -1.24367130       3.18609621      -0.00040109      -0.13800448       0.04011538
H        2.04976153       1.24367164       3.06689928       0.00040109       0.13800448      -0.04011538
H        2.44696891      -2.64456115       2.72416561      -0.05993550       0.03394190       0.01328515
H       -2.44696891       2.64456104       3.52882986       0.05993550      -0.03394190      -0.01328515
H        1.06677274       3.44141776       2.72416561       0.00057310      -0.06887677       0.01328515
H       -1.06677264      -3.44141771       3.52882986      -0.00057310       0.06887677      -0.01328515
H       -3.51374165      -0.79685661       2.72416561       0.05936240       0.03493461       0.01328515
H        3.51374156       0.79685667       3.52882986      -0.05936240      -0.03493461      -0.01328515
36
Lattice="6.491374676997684 -3.747796823403464 2.0843318328023193 0.0 7.495593646806928 2.0843318328023193 -6.491374676997684 -3.747796823403464 2.0843318328023193" Properties=species:S:1:pos:R:3:forces:R:3 energy=-5688.02238256425 free_energy=-5688.02238256425 stress="0.0007124903093947745 -0.0 -0.0 -0.0 0.0007124903093947745 0.0 -0.0 0.0 0.000788697391456329" pbc="T T T"
O       -3.80497107      -3.99219027       2.42953251      -0.00043889       0.05600043       0.02327131
O        3.80497126       3.99219047       3.82346295       0.00043889      -0.05600043      -0.02327131
O        5.35982381      -1.29910638       2.42953251      -0.04827838      -0.02838035       0.02327131
O       -5.35982408       1.29910646       3.82346295       0.04827838       0.02838035      -0.02327131
O       -1.55485275       5.29129666       2.42953251       0.04871726      -0.02762008       0.02327131
O        1.55485282      -5.29129693       3.82346295      -0.04871726       0.02762008      -0.02327131
O        0.91907351       2.59030081       3.21274106       0.16000258       0.10102584      -0.04467472
O       -0.91907332      -2.59030070       3.04025437      -0.16000258      -0.10102584       0.04467472
O       -2.70280312      -0.49920942       3.21274106      -0.16749220       0.08805334      -0.04467472
O        2.70280293       0.49920953       3.04025437       0.16749220      -0.08805334       0.04467472
O        1.78372961      -2.09109140       3.21274106       0.00748962      -0.18907918      -0.04467472
O       -1.78372961       2.09109117       3.04025437      -0.00748962       0.18907918       0.04467472
H       -4.21474210      -3.15696271       2.06577363      -0.00134083      -0.13710948       0.03007599
H        4.21474200       3.15696270       4.18722183       0.00134083       0.13710948      -0.03007599
H        4.84138102      -2.07159228       2.06577363       0.11941077       0.06739350       0.03007599
H       -4.84138097       2.07159221       4.18722183      -0.11941077      -0.06739350      -0.03007599
H       -0.62663892       5.22855499       2.06577363      -0.11806994       0.06971598       0.03007599
H        0.62663896      -5.22855490       4.18722183       0.11806994      -0.06971598      -0.03007599
H       -3.70362947      -3.80318506       3.40149372       0.07558169       0.04011204      -0.15105282
H        3.70362961       3.80318525       2.85150177      -0.07558169      -0.04011204       0.15105282
H        5.14546969      -1.30584460       3.40149372      -0.07252876       0.04539977      -0.15105282
H       -5.14546993       1.30584462       2.85150177       0.07252876      -0.04539977       0.15105282
H       -1.44184022       5.10902966       3.40149372      -0.00305293      -0.08551181      -0.15105282
H        1.44184032      -5.10902987       2.85150177       0.00305293       0.08551181       0.15105282
H        2.11040902      -1.15459164       3.19284479       0.07563131       0.04091448       0.01194483
H       -2.11040922       1.15459130       3.06015071      -0.07563131      -0.04091448      -0.01194483
H       -0.05529879       2.40496360       3.19284479      -0.07324867       0.04504136       0.01194483
H        0.05529918      -2.40496360       3.06015071       0.07324867      -0.04504136      -0.01194483
H       -2.05511023      -1.25037196       3.19284479      -0.00238264      -0.08595584       0.01194483
H        2.05511003       1.25037230       3.06015071       0.00238264       0.08595584      -0.01194483
H        2.44365532      -2.64871848       2.72317269      -0.06780539       0.07390405       0.01813913
H       -2.44365532       2.64871837       3.52982278       0.06780539      -0.07390405      -0.01813913
H        1.07202989       3.44062678       2.72317269      -0.03010016      -0.09567332       0.01813913
H       -1.07202979      -3.44062672       3.52982278       0.03010016       0.09567332      -0.01813913
H       -3.51568521      -0.79190829       2.72317269       0.09790555       0.02176927       0.01813913
H        3.51568511       0.79190835       3.52982278      -0.09790555      -0.02176927      -0.01813913
36
Lattice="6.491374676997684 -3.747796823403464 2.0843318328023193 0.0 7.495593646806928 2.0843318328023193 -6.491374676997684 -3.747796823403464 2.0843318328023193" Properties=species:S:1:pos:R:3:forces:R:3 energy=-5688.044136160854 free_energy=-5688.044136160854 stress="0.00028003807263583276 0.0 0.0 0.0 0.00028003807263583276 0.0 0.0 0.0 0.00044806091621733243" pbc="T T T"
O       -3.80439010      -3.99777920       2.42569514       0.01706390       0.05650591       0.03370305
O        3.80439030       3.99777940       3.82730032      -0.01706390      -0.05650591      -0.03370305
O        5.36437349      -1.29580879       2.42569514      -0.05746750      -0.01347515       0.03370305
O       -5.36437375       1.29580886       3.82730032       0.05746750       0.01347515      -0.03370305