24
Lattice="4.501999442219337 0.0 0.0 0.0 7.797998771857516 0.0 0.0 0.0 7.327999034088702" Properties=species:S:1:pos:R:3:forces:R:3 energy=-3792.0883220138053 free_energy=-3792.0883220138053 stress="-0.00038838067122936806 -0.0 -0.0 -0.0 -0.0017747986701805401 0.0 -0.0 0.0 -0.0009420297131946374" pbc="T T T"
O        0.00000000       5.17957422       0.44295668       0.00000000       0.00158046       0.00175863
O        0.00000000       2.61842455       4.10695619       0.00000000      -0.00158329       0.00175966
O        2.25099972       1.28057483       0.44295668       0.00000000       0.00158431       0.00175401
O        2.25099972       6.51742439       4.10695619       0.00000000      -0.00158277       0.00175941
O        2.25099972       6.48882634       6.86364976       0.00000000      -0.01598172      -0.01544744
O        2.25099972       1.30917243       3.19964979       0.00000000       0.01598738      -0.01543999
O        0.00000000       2.58982695       6.86364931       0.00000000      -0.01598249      -0.01544590
O        0.00000000       5.20817182       3.19964979       0.00000000       0.01597812      -0.01544770
H        0.00000000       5.16691550       1.44029092       0.00000000       0.01110588       0.00081581
H        0.00000000       2.63108328       5.10429043       0.00000000      -0.01110742       0.00081195
H        2.25099972       1.26791611       1.44029092       0.00000000       0.01110691       0.00080553
H        2.25099972       6.53008311       5.10429043       0.00000000      -0.01110742       0.00081093
H        0.00000000       4.22718704       0.14419049       0.00000000       0.00383891       0.00175092
H        0.00000000       3.57081173       3.80819001       0.00000000      -0.00383969       0.00174989
H        2.25099972       0.32818766       0.14419049       0.00000000       0.00384611       0.00175041
H        2.25099972       7.46981157       3.80819001       0.00000000      -0.00384457       0.00175144
H        3.05117925       5.99587451       7.19864714      -0.00324448      -0.00803418       0.00556130
H        1.45082019       1.80212427       3.53464762       0.00323985       0.00803804       0.00556490
H        3.05117925       1.80212427       3.53464762      -0.00323985       0.00803804       0.00556490
H        1.45082019       5.99587451       7.19864714       0.00324448      -0.00803418       0.00556130
H        0.80017953       2.09687512       7.19864714      -0.00324088      -0.00803650       0.00556310
H        3.70181991       5.70112410       3.53464762       0.00324345       0.00803341       0.00556181
H        0.80017953       5.70112410       3.53464762      -0.00324345       0.00803341       0.00556181
H        3.70181991       2.09687512       7.19864714       0.00324088      -0.00803650       0.00556310
