24
Lattice="4.790127436155298 0.0 0.0 0.0 8.297070744585877 0.0 0.0 0.0 7.7969910205061375" Properties=species:S:1:pos:R:3:forces:R:3 energy=-3790.6517643507977 free_energy=-3790.6517643507977 stress="0.051683092159577136 -0.0 -0.0 -0.0 0.051067008399778305 0.0 -0.0 0.0 0.05052713172204103" pbc="T T T"
O        0.00000000       5.51106700       0.47130591       0.00000000      -1.72338320       1.25392650
O        0.00000000       2.78600374       4.36980142       0.00000000       1.72339657       1.25393035
O        2.39506372       1.36253163       0.47130591       0.00000000      -1.72335543       1.25389410
O        2.39506372       6.93453959       4.36980142       0.00000000       1.72339965       1.25393293
O        2.39506372       6.90411127       7.30292339       0.00000000      -1.75962058       1.18829858
O        2.39506372       1.39295948       3.40442740       0.00000000       1.75962058       1.18829832
O        0.00000000       2.75557589       7.30292291       0.00000000      -1.75970131       1.18831966
O        0.00000000       5.54149485       3.40442740       0.00000000       1.75960978       1.18829395
H        0.00000000       5.49759812       1.53246954       0.00000000      -0.08559614      -1.98474406
H        0.00000000       2.79947262       5.43096505       0.00000000       0.08558611      -1.98473198
H        2.39506372       1.34906275       1.53246954       0.00000000      -0.08559254      -1.98476411
H        2.39506372       6.94800847       5.43096505       0.00000000       0.08559305      -1.98474046
H        0.00000000       4.49772704       0.15341868       0.00000000       1.83892163       0.72579928
H        0.00000000       3.79934370       4.05191419       0.00000000      -1.83893371       0.72580442
H        2.39506372       0.34919167       0.15341868       0.00000000       1.83895428       0.72580777
H        2.39506372       7.94787956       4.05191419       0.00000000      -1.83893114       0.72580083
H        3.24645474       6.37961051       7.65936060      -1.67793998       0.87565243      -0.59163758
H        1.54367269       1.91746023       3.76086509       1.67793972      -0.87565372      -0.59163732
H        3.24645474       1.91746023       3.76086509      -1.67793972      -0.87565372      -0.59163732
H        1.54367269       6.37961051       7.65936060       1.67793998       0.87565243      -0.59163758
H        0.85139102       2.23107514       7.65936060      -1.67797391       0.87566991      -0.59165223
H        3.93873641       6.06599608       3.76086509       1.67793586      -0.87565269      -0.59163578
H        0.85139102       6.06599608       3.76086509      -1.67793586      -0.87565269      -0.59163578
H        3.93873641       2.23107514       7.65936060       1.67797391       0.87566991      -0.59165223
