24
Lattice="4.799131386355434 0.0 0.0 0.0 8.312666657802588 0.0 0.0 0.0 7.8116469393298535" Properties=species:S:1:pos:R:3:forces:R:3 energy=-3790.455533673816 free_energy=-3790.455533673816 stress="0.03015688687122599 -0.0 -0.0 -0.0 0.05633264232294716 0.0 -0.0 0.0 0.03805855130763247" pbc="T T T"
O        0.00000000       5.52626074       0.49291495       0.00000000      -2.72174384       0.33249995
O        0.00000000       2.78640592       4.39873842       0.00000000       2.72169704       0.33249198
O        2.39956569       1.36992741       0.49291495       0.00000000      -2.72170630       0.33248272
O        2.39956569       6.94273973       4.39873842       0.00000000       2.72173150       0.33250740
O        2.39956569       6.86210664       7.31873199       0.00000000       0.41105975       0.00280250
O        2.39956569       1.45056050       3.41290852       0.00000000      -0.41103918       0.00282590
O        0.00000000       2.70577331       7.31873199       0.00000000       0.41105332       0.00281741
O        0.00000000       5.60689383       3.41290852       0.00000000      -0.41104715       0.00281047
H        0.00000000       5.51628623       1.53342614       0.00000000      -0.18736169      -1.60453010
H        0.00000000       2.79638091       5.43925009       0.00000000       0.18735449      -1.60457689
H        2.39956569       1.35995242       1.53342614       0.00000000      -0.18735449      -1.60455683
H        2.39956569       6.95271424       5.43925009       0.00000000       0.18736143      -1.60454989
H        0.00000000       4.45808351       0.14295317       0.00000000       2.89936156       1.15894840
H        0.00000000       3.85458362       4.04877664       0.00000000      -2.89939344       1.15894969
H        2.39956569       0.30174971       0.14295317       0.00000000       2.89938624       1.15894892
H        2.39956569       8.01091695       4.04877664       0.00000000      -2.89936850       1.15894840
H        3.24709230       6.44065460       7.66869377      -0.85559037      -0.18872437       0.05514656
H        1.55203909       1.87201254       3.76287030       0.85558291       0.18873003       0.05514888
H        3.24709230       1.87201254       3.76287030      -0.85558291       0.18873003       0.05514888
H        1.55203909       6.44065460       7.66869377       0.85559037      -0.18872437       0.05514656
H        0.84752660       2.28432079       7.66869377      -0.85558446      -0.18872746       0.05514836
H        3.95160478       6.02834587       3.76287030       0.85558934       0.18872643       0.05514631
H        0.84752660       6.02834587       3.76287030      -0.85558934       0.18872643       0.05514631
H        3.95160478       2.28432079       7.66869377       0.85558446      -0.18872746       0.05514836
24
Lattice="4.799131386355434 0.0 0.0 0.0 8.312666657802588 0.0 0.0 0.0 7.8116469393298535" Properties=species:S:1:pos:R:3:forces:R:3 energy=-3791.628139552758 free_energy=-3791.628139552758 stress="0.023559006248402733 -0.0 -0.0 -0.0 0.01696571641365547 -0.0 -0.0 -0.0 0.017911418757310903" pbc="T T T"
O        0.00000000       5.47024253       0.49975837       0.00000000      -0.05777089      -0.14826549
O        0.00000000       2.84242316       4.40558149       0.00000000       0.05778554      -0.14827886
O        2.39956569       1.31390998       0.49975801       0.00000000      -0.05778194      -0.14827089
O        2.39956569       6.99875720       4.40558181       0.00000000       0.05777680      -0.14827218
O        2.39956569       6.87056673       7.31878985       0.00000000       0.27233228      -0.08486466
O        2.39956569       1.44210035       3.41296663       0.00000000      -0.27233845      -0.08487006
O        0.00000000       2.71423327       7.31879016       0.00000000       0.27233485      -0.08486826
O        0.00000000       5.59843351       3.41296631       0.00000000      -0.27233536      -0.08486646
H        0.00000000       5.51242960       1.50040231       0.00000000      -0.41571344      -0.44554904
H        0.00000000       2.80023691       5.40622505       0.00000000       0.41570804      -0.44553310
H        2.39956569       1.35609642       1.50040176       0.00000000      -0.41570881      -0.44554055
H        2.39956569       6.95657038       5.40622560       0.00000000       0.41571216      -0.44554312
H        0.00000000       4.51775700       0.16680629       0.00000000       0.57648658       0.58700599
H        0.00000000       3.79490900       4.07262976       0.00000000      -0.57649378       0.58700342
H        2.39956569       0.36142418       0.16680631       0.00000000       0.57649198       0.58700342
H        2.39956569       7.95124285       4.07262973       0.00000000      -0.57649044       0.58700625
H        3.22948268       6.43676988       7.66982884      -0.62208561      -0.19206963       0.04583686
H        1.56964855       1.87589689       3.76400541       0.62208535       0.19207195       0.04583891
H        3.22948283       1.87589689       3.76400541      -0.62208535       0.19207195       0.04583891
H        1.56964871       6.43676988       7.66982884       0.62208561      -0.19206963       0.04583686
H        0.82991710       2.28043649       7.66982887      -0.62208612      -0.19207066       0.04583814
H        3.96921438       6.03223015       3.76400536       0.62208432       0.19207092       0.04583788
H        0.82991700       6.03223015       3.76400536      -0.62208432       0.19207092       0.04583788
H        3.96921428       2.28043649       7.66982887       0.62208612      -0.19207066       0.04583814
24
Lattice="4.799131386355434 0.0 0.0 0.0 8.312666657802588 0.0 0.0 0.0 7.8116469393298535" Properties=species:S:1:pos:R:3:forces:R:3 energy=-3791.7604920503436 free_energy=-3791.7604920503436 stress="0.016152228766588755 -0.0 -0.0 -0.0 0.00147364297239512 0.0 -0.0 0.0 0.009876621466700502" pbc="T T T"
O        0.00000000       5.46432065       0.49644165       0.00000000       0.94404943      -0.05655784
O        0.00000000       2.84834535       4.40226442       0.00000000      -0.94406332      -0.05653496
O        2.39956569       1.30798787       0.49644112       0.00000000       0.94405817      -0.05654447
O        2.39956569       7.00467921       4.40226493       0.00000000      -0.94405612      -0.05654859
O        2.39956569       6.87831788       7.31658696       0.00000000       0.27796016      -0.11908064
O        2.39956569       1.43434908       3.41076364       0.00000000      -0.27795965      -0.11908064
O        0.00000000       2.72198448       7.31658720       0.00000000       0.27796016      -0.11908193
O        0.00000000       5.59068230       3.41076339       0.00000000      -0.27795965      -0.11907936
H        0.00000000       5.50131213       1.48620777       0.00000000      -0.30734813      -0.03832255
H        0.00000000       2.81135423       5.39203086       0.00000000       0.30734530      -0.03833412
H        2.39956569       1.34497908       1.48620740       0.00000000      -0.30734582      -0.03832795
H        2.39956569       6.96768782       5.39203119       0.00000000       0.30734762      -0.03832795
H        0.00000000       4.53745975       0.18395684       0.00000000      -0.52596800       0.11058109
H        0.00000000       3.77520601       4.08978023       0.00000000       0.52598574       0.11057158
H        2.39956569       0.38112711       0.18395678       0.00000000      -0.52597957       0.11057441
H        2.39956569       7.93153998       4.08978029       0.00000000       0.52597546       0.11057775
H        3.21191222       6.43146747       7.67111066      -0.29105685      -0.19686628       0.05168997
H        1.58721899       1.88119937       3.76528729       0.29106045       0.19686551       0.05168920
H        3.21191239       1.88119937       3.76528729      -0.29106045       0.19686551       0.05168920
H        1.58721917       6.43146747       7.67111066       0.29105685      -0.19686628       0.05168997
H        0.81234664       2.27513405       7.67111072      -0.29105891      -0.19686577       0.05168972
H        3.98678481       6.03753260       3.76528720       0.29105839       0.19686577       0.05168946
H        0.81234658       6.03753260       3.76528720      -0.29105839       0.19686577       0.05168946
H        3.98678475       2.27513405       7.67111072       0.29105891      -0.19686577       0.05168972
24
Lattice="4.799131386355434 0.0 0.0 0.0 8.312666657802588 0.0 0.0 0.0 7.8116469393298535" Properties=species:S:1:pos:R:3:forces:R:3 energy=-3791.849328102851 free_energy=-3791.849328102851 stress="0.011496251499912334 -0.0 -0.0 -0.0 0.006827420026623123 -0.0 -0.0 -0.0 0.005278488129781648" pbc="T T T"
O        0.00000000       5.47936132       0.49429051       0.00000000       0.30833955      -0.36404584
O        0.00000000       2.83330442       4.40011364       0.00000000      -0.30832515      -0.36405715
O        2.39956569       1.32302869       0.49429019       0.00000000       0.30833080      -0.36405175
O        2.39956569       6.98963843       4.40011395       0.00000000      -0.30833415      -0.36405201
O        2.39956569       6.88825969       7.31302683       0.00000000       0.17268377      -0.01167255
O        2.39956569       1.42440726       3.40720350       0.00000000      -0.17268377      -0.01167307
O        0.00000000       2.73192630       7.31302704       0.00000000       0.17268274      -0.01167332
O        0.00000000       5.58074050       3.40720328       0.00000000      -0.17268454      -0.01167229
H        0.00000000       5.48965879       1.47739247       0.00000000      -0.12067858       0.28651422
H        0.00000000       2.82300743       5.38321537       0.00000000       0.12067653       0.28652502
H        2.39956569       1.33332586       1.47739201       0.00000000      -0.12067704       0.28652065
H        2.39956569       6.97934113       5.38321579       0.00000000       0.12067807       0.28651937
H        0.00000000       4.53762171       0.19497372       0.00000000      -0.10348947       0.07271234
H        0.00000000       3.77504431       4.10079688       0.00000000       0.10347945       0.07271337
H        2.39956569       0.38128891       0.19497349       0.00000000      -0.10348407       0.07271260
H        2.39956569       7.93137813       4.10079710       0.00000000       0.10348536       0.07271311
H        3.19709282       6.42464338       7.67286551      -0.06126296      -0.12268276       0.00824604
H        1.60203846       1.88802348       3.76704215       0.06126502       0.12268224       0.00824578
H        3.19709293       1.88802348       3.76704215      -0.06126502       0.12268224       0.00824578
H        1.60203857       6.42464338       7.67286551       0.06126296      -0.12268276       0.00824604
H        0.79752720       2.26830996       7.67286559      -0.06126450      -0.12268224       0.00824578
H        4.00160423       6.04435669       3.76704206       0.06126347       0.12268276       0.00824604
H        0.79752716       6.04435669       3.76704206      -0.06126347       0.12268276       0.00824604
H        4.00160418       2.26830996       7.67286559       0.06126450      -0.12268224       0.00824578
24
Lattice="4.799131386355434 0.0 0.0 0.0 8.312666657802588 0.0 0.0 0.0 7.8116469393298535" Properties=species:S:1:pos:R:3:forces:R:3 energy=-3791.866429233098 free_energy=-3791.866429233098 stress="0.009603010497371065 -0.0 -0.0 -0.0 0.008645372104718038 0.0 -0.0 0.0 0.012545705654085307" pbc="T T T"
O        0.00000000       5.49031037       0.48260932       0.00000000       0.04104509       0.31788811
O        0.00000000       2.82235573       4.38843217       0.00000000      -0.04106026       0.31790816
O        2.39956569       1.33397753       0.48260886       0.00000000       0.04105383       0.31789968
O        2.39956569       6.97868952       4.38843261       0.00000000      -0.04105152       0.31789737
O        2.39956569       6.89783230       7.31127189       0.00000000      -0.01778998       0.12392846
O        2.39956569       1.41483464       3.40544854       0.00000000       0.01778869       0.12392717
O        0.00000000       2.74149889       7.31127206       0.00000000      -0.01778895       0.12392666
O        0.00000000       5.57116786       3.40544835       0.00000000       0.01778946       0.12392897
H        0.00000000       5.48076442       1.47996972       0.00000000       0.04266000      -0.24763811
H        0.00000000       2.83190167       5.38579290       0.00000000      -0.04266000      -0.24765097
H        2.39956569       1.32443159       1.47996944       0.00000000       0.04266000      -0.24764531
H        2.39956569       6.98823548       5.38579317       0.00000000      -0.04266000      -0.24764454
H        0.00000000       4.53952610       0.20381852       0.00000000       0.00184605      -0.06065875
H        0.00000000       3.77313964       4.10964163       0.00000000      -0.00182934      -0.06066389
H        2.39956569       0.38319346       0.20381823       0.00000000       0.00183628      -0.06066184
H        2.39956569       7.92947363       4.10964190       0.00000000      -0.00183911      -0.06066107
H        3.18757462       6.41801788       7.67387257       0.03694161      -0.01790979      -0.06675998
H        1.61155673       1.89464898       3.76804921      -0.03694187       0.01791005      -0.06675998
H        3.18757466       1.89464898       3.76804921       0.03694187       0.01791005      -0.06675998
H        1.61155677       6.41801788       7.67387257      -0.03694161      -0.01790979      -0.06675998
H        0.78800895       2.26168447       7.67387265       0.03694212      -0.01791005      -0.06675972
H        4.01112244       6.05098220       3.76804911      -0.03694135       0.01790979      -0.06676024
H        0.78800894       6.05098220       3.76804911       0.03694135       0.01790979      -0.06676024
H        4.01112244       2.26168447       7.67387265      -0.03694212      -0.01791005      -0.06675972
24
Lattice="4.799131386355434 0.0 0.0 0.0 8.312666657802588 0.0 0.0 0.0 7.8116469393298535" Properties=species:S:1:pos:R:3:forces:R:3 energy=-3791.872580094307 free_energy=-3791.872580094307 stress="0.009917938559384477 -0.0 -0.0 -0.0 0.009240338239367282 -0.0 -0.0 -0.0 0.009155867738768933" pbc="T T T"
O        0.00000000       5.48986727       0.48686325       0.00000000       0.01405802       0.01025793
O        0.00000000       2.82279867       4.39268633       0.00000000      -0.01405596       0.01025716
O        2.39956569       1.33353451       0.48686292       0.00000000       0.01405674       0.01025742
O        2.39956569       6.97913256       4.39268664       0.00000000      -0.01405725       0.01025742
O        2.39956569       6.89688474       7.31341337       0.00000000       0.01984249       0.09061545
O        2.39956569       1.41578218       3.40759000       0.00000000      -0.01984275       0.09061493
O        0.00000000       2.74055134       7.31341352       0.00000000       0.01984197       0.09061467
O        0.00000000       5.57211541       3.40758984       0.00000000      -0.01984300       0.09061570
H        0.00000000       5.48227779       1.47759333       0.00000000       0.01249453       0.00316940
H        0.00000000       2.83038831       5.38341637       0.00000000      -0.01249453       0.00317146
H        2.39956569       1.32594495       1.47759298       0.00000000       0.01249453       0.00317094
H        2.39956569       6.98672211       5.38341671       0.00000000      -0.01249453       0.00316991
H        0.00000000       4.53950671       0.20206947       0.00000000       0.04860953      -0.01376903
H        0.00000000       3.77315923       4.10789254       0.00000000      -0.04860953      -0.01376903
H        2.39956569       0.38317395       0.20206916       0.00000000       0.04860928      -0.01376903
H        2.39956569       7.92949311       4.10789283       0.00000000      -0.04860953      -0.01376903
H        3.18937208       6.41821561       7.67273758       0.01963474      -0.03477957      -0.04513700
H        1.60975926       1.89445125       3.76691422      -0.01963423       0.03477931      -0.04513726
H        3.18937212       1.89445125       3.76691422       0.01963423       0.03477931      -0.04513726
H        1.60975931       6.41821561       7.67273758      -0.01963474      -0.03477957      -0.04513700
H        0.78980641       2.26188219       7.67273766       0.01963449      -0.03477931      -0.04513700
H        4.00932499       6.05078447       3.76691412      -0.01963449       0.03477957      -0.04513700
H        0.78980640       6.05078447       3.76691412       0.01963449       0.03477957      -0.04513700
H        4.00932497       2.26188219       7.67273766      -0.01963449      -0.03477931      -0.04513700
24
Lattice="4.799131386355434 0.0 0.0 0.0 8.312666657802588 0.0 0.0 0.0 7.8116469393298535" Properties=species:S:1:pos:R:3:forces:R:3 energy=-3791.8743886989355 free_energy=-3791.8743886989355 stress="0.00993171092361247 -0.0 -0.0 -0.0 0.009188921412916114 -0.0 -0.0 -0.0 0.008630681582874845" pbc="T T T"
O        0.00000000       5.49054624       0.48762431       0.00000000       0.01365873      -0.03687965
O        0.00000000       2.82211972       4.39344741       0.00000000      -0.01365667      -0.03688068
O        2.39956569       1.33421347       0.48762399       0.00000000       0.01365744      -0.03688016
O        2.39956569       6.97845359       4.39344771       0.00000000      -0.01365796      -0.03688042
O        2.39956569       6.89738494       7.31591641       0.00000000       0.03146799       0.06768378
O        2.39956569       1.41528197       3.41009302       0.00000000      -0.03146825       0.06768326
O        0.00000000       2.74105153       7.31591653       0.00000000       0.03146773       0.06768301
O        0.00000000       5.57161520       3.41009288       0.00000000      -0.03146850       0.06768403
H        0.00000000       5.48266189       1.47737021       0.00000000       0.00821159       0.04108777
H        0.00000000       2.83000420       5.38319328       0.00000000      -0.00821133       0.04108957
H        2.39956569       1.32632906       1.47736988       0.00000000       0.00821159       0.04108880
H        2.39956569       6.98633800       5.38319360       0.00000000      -0.00821159       0.04108854
H        0.00000000       4.54051398       0.20154616       0.00000000       0.04792331      -0.00585723
H        0.00000000       3.77215199       4.10736922       0.00000000      -0.04792382      -0.00585672
H        2.39956569       0.38418120       0.20154585       0.00000000       0.04792356      -0.00585697
H        2.39956569       7.92848585       4.10736952       0.00000000      -0.04792356      -0.00585697
H        3.18999437       6.41728130       7.67147874       0.01583748      -0.03878046      -0.03301734
H        1.60913698       1.89538555       3.76565538      -0.01583722       0.03878021      -0.03301759
H        3.18999441       1.89538555       3.76565538       0.01583722       0.03878021      -0.03301759
H        1.60913701       6.41728130       7.67147874      -0.01583748      -0.03878046      -0.03301734
H        0.79042870       2.26094789       7.67147882       0.01583722      -0.03878021      -0.03301759
H        4.00870270       6.05171878       3.76565528      -0.01583722       0.03878046      -0.03301759
H        0.79042869       6.05171878       3.76565528       0.01583722       0.03878046      -0.03301759
H        4.00870268       2.26094789       7.67147882      -0.01583722      -0.03878021      -0.03301759
24
Lattice="4.799131386355434 0.0 0.0 0.0 8.312666657802588 0.0 0.0 0.0 7.8116469393298535" Properties=species:S:1:pos:R:3:forces:R:3 energy=-3791.8761426086826 free_energy=-3791.8761426086826 stress="0.010018017739441217 -0.0 -0.0 -0.0 0.00915678589638413 -0.0 -0.0 -0.0 0.008502139516746924" pbc="T T T"
O        0.00000000       5.49159129       0.48792850       0.00000000       0.01249119      -0.05106134
O        0.00000000       2.82107469       4.39375165       0.00000000      -0.01248733      -0.05106494
O        2.39956569       1.33525851       0.48792822       0.00000000       0.01248888      -0.05106314
O        2.39956569       6.97740854       4.39375192       0.00000000      -0.01248965      -0.05106314
O        2.39956569       6.89837303       7.31854458       0.00000000       0.02850916       0.05368875
O        2.39956569       1.41429387       3.41272117       0.00000000      -0.02850916       0.05368823
O        0.00000000       2.74203962       7.31854467       0.00000000       0.02850865       0.05368823
O        0.00000000       5.57062709       3.41272107       0.00000000      -0.02850942       0.05368875
H        0.00000000       5.48287362       1.47738022       0.00000000       0.00854146       0.05239960
H        0.00000000       2.82979248       5.38320330       0.00000000      -0.00854095       0.05240294
H        2.39956569       1.32654079       1.47737990       0.00000000       0.00854120       0.05240165
H        2.39956569       6.98612628       5.38320360       0.00000000      -0.00854146       0.05240114
H        0.00000000       4.54178984       0.20123292       0.00000000       0.04311200      -0.00356998
H        0.00000000       3.77087618       4.10705596       0.00000000      -0.04311457      -0.00356869
H        2.39956569       0.38545702       0.20123260       0.00000000       0.04311354      -0.00356921
H        2.39956569       7.92721001       4.10705628       0.00000000      -0.04311303      -0.00356972
H        3.19042271       6.41594077       7.67016417       0.00928631      -0.03521434      -0.02572852
H        1.60870865       1.89672607       3.76434080      -0.00928605       0.03521409      -0.02572877
H        3.19042273       1.89672607       3.76434080       0.00928605       0.03521409      -0.02572877
H        1.60870867       6.41594077       7.67016417      -0.00928631      -0.03521434      -0.02572852
H        0.79085704       2.25960737       7.67016425       0.00928605      -0.03521409      -0.02572877
H        4.00827436       6.05305930       3.76434071      -0.00928631       0.03521434      -0.02572852
H        0.79085702       6.05305930       3.76434071       0.00928631       0.03521434      -0.02572852
H        4.00827435       2.25960737       7.67016425      -0.00928605      -0.03521409      -0.02572877
24
Lattice="4.799131386355434 0.0 0.0 0.0 8.312666657802588 0.0 0.0 0.0 7.8116469393298535" Properties=species:S:1:pos:R:3:forces:R:3 energy=-3791.878298974797 free_energy=-3791.878298974797 stress="0.010071270881122786 -0.0 -0.0 -0.0 0.00909159670570497 -0.0 -0.0 -0.0 0.008596709751112467" pbc="T T T"
O        0.00000000       5.49332998       0.48806315       0.00000000       0.01029804      -0.04798167
O        0.00000000       2.81933608       4.39388629       0.00000000      -0.01029701      -0.04798193
O        2.39956569       1.33699715       0.48806287       0.00000000       0.01029753      -0.04798141
O        2.39956569       6.97566988       4.39388656       0.00000000      -0.01029753      -0.04798193
O        2.39956569       6.89995270       7.32244879       0.00000000       0.02213180       0.03386169
O        2.39956569       1.41271418       3.41662533       0.00000000      -0.02213206       0.03386117
O        0.00000000       2.74361928       7.32244883       0.00000000       0.02213180       0.03386117
O        0.00000000       5.56904739       3.41662528       0.00000000      -0.02213206       0.03386169
H        0.00000000       5.48317515       1.47760102       0.00000000       0.01114702       0.04845707
H        0.00000000       2.82949096       5.38342416       0.00000000      -0.01114625       0.04845758
H        2.39956569       1.32684231       1.47760075       0.00000000       0.01114650       0.04845732
H        2.39956569       6.98582475       5.38342443       0.00000000      -0.01114676       0.04845732
H        0.00000000       4.54379808       0.20086092       0.00000000       0.03430443      -0.00285007
H        0.00000000       3.76886796       4.10668396       0.00000000      -0.03430469      -0.00284904
H        2.39956569       0.38746526       0.20086059       0.00000000       0.03430469      -0.00284930
H        2.39956569       7.92520177       4.10668427       0.00000000      -0.03430469      -0.00284981
H        3.19080530       6.41380122       7.66822035       0.00374507      -0.02877090      -0.01574364
H        1.60832608       1.89886561       3.76239696      -0.00374533       0.02877064      -0.01574389
H        3.19080531       1.89886561       3.76239696       0.00374533       0.02877064      -0.01574389
H        1.60832609       6.41380122       7.66822035      -0.00374507      -0.02877090      -0.01574364
H        0.79123962       2.25746783       7.66822042       0.00374533      -0.02877090      -0.01574364
H        4.00789178       6.05519885       3.76239687      -0.00374507       0.02877090      -0.01574364
H        0.79123961       6.05519885       3.76239687       0.00374507       0.02877090      -0.01574364
H        4.00789177       2.25746783       7.66822042      -0.00374533      -0.02877090      -0.01574364
24
Lattice="4.799131386355434 0.0 0.0 0.0 8.312666657802588 0.0 0.0 0.0 7.8116469393298535" Properties=species:S:1:pos:R:3:forces:R:3 energy=-3791.8803096239512 free_energy=-3791.8803096239512 stress="0.010152068751260337 -0.0 -0.0 -0.0 0.009019062254104215 -0.0 -0.0 -0.0 0.008951118590579454" pbc="T T T"
O        0.00000000       5.49613712       0.48807034       0.00000000       0.00743846      -0.02776997
O        0.00000000       2.81652897       4.39389360       0.00000000      -0.00743357      -0.02777666
O        2.39956569       1.33980426       0.48807014       0.00000000       0.00743537      -0.02777408
O        2.39956569       6.97286275       4.39389378       0.00000000      -0.00743640      -0.02777306
O        2.39956569       6.90245120       7.32825123       0.00000000       0.00330567       0.01061763
O        2.39956569       1.41021566       3.42242772       0.00000000      -0.00330567       0.01061763
O        0.00000000       2.74611776       7.32825119       0.00000000       0.00330541       0.01061763
O        0.00000000       5.56654886       3.42242775       0.00000000      -0.00330592       0.01061763
H        0.00000000       5.48379043       1.47808102       0.00000000       0.01563076       0.02883312
H        0.00000000       2.82887571       5.38390416       0.00000000      -0.01562974       0.02883801
H        2.39956569       1.32745757       1.47808075       0.00000000       0.01562999       0.02883595
H        2.39956569       6.98520948       5.38390441       0.00000000      -0.01563051       0.02883518
H        0.00000000       4.54700127       0.20032423       0.00000000       0.01907450      -0.00313546
H        0.00000000       3.76566488       4.10614729       0.00000000      -0.01907887      -0.00313263
H        2.39956569       0.39066837       0.20032392       0.00000000       0.01907707      -0.00313366
H        2.39956569       7.92199862       4.10614759       0.00000000      -0.01907630      -0.00313443
H        3.19117205       6.41036364       7.66534387      -0.00511855      -0.01395569      -0.00427266
H        1.60795934       1.90230316       3.75952046       0.00511830       0.01395543      -0.00427292
H        3.19117204       1.90230316       3.75952046      -0.00511830       0.01395543      -0.00427292
H        1.60795934       6.41036364       7.66534387       0.00511855      -0.01395569      -0.00427266
H        0.79160636       2.25403026       7.66534393      -0.00511855      -0.01395543      -0.00427292
H        4.00752504       6.05863643       3.75952039       0.00511830       0.01395569      -0.00427266
H        0.79160635       6.05863643       3.75952039      -0.00511830       0.01395569      -0.00427266
H        4.00752503       2.25403026       7.66534393       0.00511855      -0.01395543      -0.00427292
24
Lattice="4.799131386355434 0.0 0.0 0.0 8.312666657802588 0.0 0.0 0.0 7.8116469393298535" Properties=species:S:1:pos:R:3:forces:R:3 energy=-3791.880795619267 free_energy=-3791.880795619267 stress="0.010075861669198783 -0.0 -0.0 -0.0 0.008951118590579454 0.0 -0.0 0.0 0.009353271626036814" pbc="T T T"
O        0.00000000       5.49827196       0.48795986       0.00000000       0.00688387      -0.00328356
O        0.00000000       2.81439430       4.39378297       0.00000000      -0.00688773      -0.00327379
O        2.39956569       1.34193900       0.48795959       0.00000000       0.00688516      -0.00327739
O        2.39956569       6.97072797       4.39378323       0.00000000      -0.00688644      -0.00327970
O        2.39956569       6.90401057       7.33227011       0.00000000      -0.00694352      -0.00820388
O        2.39956569       1.40865628       3.42644656       0.00000000       0.00694584      -0.00820310
O        0.00000000       2.74767711       7.33227003       0.00000000      -0.00694558      -0.00820336
O        0.00000000       5.56498946       3.42644664       0.00000000       0.00694378      -0.00820362
H        0.00000000       5.48459491       1.47856952       0.00000000       0.01763160       0.00390473
H        0.00000000       2.82807127       5.38439282       0.00000000      -0.01763083       0.00389651
H        2.39956569       1.32826202       1.47856936       0.00000000       0.01763108       0.00389959
H        2.39956569       6.98440502       5.38439297       0.00000000      -0.01763134       0.00390139
H        0.00000000       4.54942541       0.19987825       0.00000000       0.00811852      -0.00233482