36
Lattice="6.0239956543349376 -3.4779554256071186 1.9342599260963327 0.0 6.955910851214237 1.9342599260963327 -6.0239956543349376 -3.4779554256071186 1.9342599260963327" Properties=species:S:1:pos:R:3:forces:R:3 energy=-5682.849760809147 free_energy=-5682.849760809147 stress="-0.1421895609202479 -0.0 -0.0 -0.0 -0.1421895609202479 -0.0 -0.0 -0.0 -0.15663126204972005" pbc="T T T"
O       -3.49994200      -3.75271435       2.22633347       0.40076171      -1.56709380      -1.41937699
O        3.49994200       3.75271507       3.57644703      -0.40076171       1.56709380       1.41937699
O        4.99991704      -1.15468117       2.22633347       1.15676220       1.13061690      -1.41937699
O       -4.99991776       1.15468117       3.57644703      -1.15676220      -1.13061690       1.41937699
O       -1.49997504       4.90739625       2.22633347      -1.55752416       0.43647716      -1.41937699
O        1.49997504      -4.90739625       3.57644703       1.55752416      -0.43647716       1.41937699
O        0.87950350       2.39979011       3.01744592       1.86132725      -1.09677682       1.03812455
O       -0.87950350      -2.39979011       2.78533458      -1.86132725       1.09677682      -1.03812455
O       -2.51803086      -0.43822259       3.01744592       0.01917297       2.16034526       1.03812455
O        2.51803086       0.43822259       2.78533458      -0.01917297      -2.16034526      -1.03812455
O        1.63852737      -1.96156752       3.01744592      -1.88050022      -1.06356819       1.03812455
O       -1.63852737       1.96156680       2.78533458       1.88050022       1.06356819      -1.03812455
H       -3.88547781      -2.91104931       2.01936739      -1.15835474       1.93707786      -2.44282491
H        3.88547781       2.91104931       3.78341311       1.15835474      -1.93707786       2.44282491
H        4.46378188      -1.90939769       2.01936739      -1.09838118      -1.97170342      -2.44282491
H       -4.46378188       1.90939769       3.78341311       1.09838118       1.97170342       2.44282491
H       -0.57830407       4.82044700       2.01936739       2.25673592       0.03462556      -2.44282491
H        0.57830407      -4.82044700       3.78341311      -2.25673592      -0.03462556       2.44282491
H       -3.51801398      -3.47795615       3.12383025       0.91317434      -0.58594593       3.49181263
H        3.51801398       3.47795615       2.67895025      -0.91317434       0.58594593      -3.49181263
H        4.77100554      -1.30771144       3.12383025       0.05085693       1.08380509       3.49181263
H       -4.77100554       1.30771144       2.67895025      -0.05085693      -1.08380509      -3.49181263
H       -1.25299156       4.78566759       3.12383025      -0.96403127      -0.49785916       3.49181263
H        1.25299156      -4.78566759       2.67895025       0.96403127       0.49785916      -3.49181263
H        1.95177453      -1.08512235       2.93040426       0.52978583       3.07293442       0.17456094
H       -1.95177526       1.08512235       2.87237624      -0.52978583      -3.07293442      -0.17456094
H       -0.03614396       2.23284793       2.93040426      -2.92613214      -1.07765912       0.17456094
H        0.03614396      -2.23284793       2.87237624       2.92613214       1.07765912      -0.17456094
H       -1.91563057      -1.14772558       2.93040426       2.39634631      -1.99527530       0.17456094
H        1.91563057       1.14772558       2.87237624      -2.39634631       1.99527530      -0.17456094
H        2.29514287      -2.41717981       2.52227541       1.38176432      -2.06681496      -1.25387405
H       -2.29514287       2.41717981       3.28050509      -1.38176432       2.06681496       1.25387405
H        0.94576790       3.19624163       2.52227541       1.09903219       2.23005044      -1.25387405
H       -0.94576718      -3.19624163       3.28050509      -1.09903219      -2.23005044       1.25387405
H       -3.24091005      -0.77906181       2.52227541      -2.48079651      -0.16323548      -1.25387405
H        3.24091005       0.77906181       3.28050509       2.48079651       0.16323548       1.25387405
36
Lattice="6.0239956543349376 -3.4779554256071186 1.9342599260963327 0.0 6.955910851214237 1.9342599260963327 -6.0239956543349376 -3.4779554256071186 1.9342599260963327" Properties=species:S:1:pos:R:3:forces:R:3 energy=-5684.937613284935 free_energy=-5684.937613284935 stress="-0.02619228228879476 -0.0 -0.0 -0.0 -0.02619228228879476 -0.0 -0.0 -0.0 -0.03160941221847152" pbc="T T T"
O       -3.49169293      -3.78496729       2.19711991      -0.74351778       1.50631653       1.26893377
O        3.49169311       3.78496747       3.60565983       0.74351778      -1.50631653      -1.26893377
O        5.02372437      -1.13141106       2.19711991      -0.93274943      -1.39706367       1.26893377
O       -5.02372462       1.13141112       3.60565983       0.93274943       1.39706367      -1.26893377
O       -1.53203144       4.91637835       2.19711991       1.67626722      -0.10925286       1.26893377
O        1.53203151      -4.91637860       3.60565983      -1.67626722       0.10925286      -1.26893377
O        0.91781266       2.37721579       3.03881181      -1.40881052       0.73669305      -0.76497544
O       -0.91781248      -2.37721569       2.76396791       1.40881052      -0.73669305       0.76497544
O       -2.51763565      -0.39375884       3.03881181       0.06641031      -1.58841211      -0.76497544
O        2.51763547       0.39375894       2.76396791      -0.06641031       1.58841211       0.76497544
O        1.59982299      -1.98345696       3.03881181       1.34239996       0.85171906      -0.76497544
O       -1.59982299       1.98345675       2.76396791      -1.34239996      -0.85171906       0.76497544
H       -3.90931809      -2.87118036       1.96908985       0.05188666      -0.61865293      -1.19634870
H        3.90931801       2.87118035       3.83368989      -0.05188666       0.61865293       1.19634870
H        4.44117424      -1.94997852       1.96908985       0.50982585       0.35426151      -1.19634870
H       -4.44117419       1.94997845       3.83368989      -0.50982585      -0.35426151       1.19634870
H       -0.53185614       4.82115887       1.96908985      -0.56171251       0.26439117      -1.19634870
H        0.53185618      -4.82115880       3.83368989       0.56171251      -0.26439117       1.19634870
H       -3.49921872      -3.49001510       3.19569721       0.79109168      -1.11837691      -0.45970939
H        3.49921884       3.49001527       2.60708256      -0.79109168       1.11837691       0.45970939
H        4.77205117      -1.28540468       3.19569721       0.57299708       1.24429386      -0.45970939
H       -4.77205138       1.28540470       2.60708256      -0.57299708      -1.24429386       0.45970939
H       -1.27283245       4.77541977       3.19569721      -1.36408850      -0.12591695      -0.45970939
H        1.27283254      -4.77541997       2.60708256       1.36408850       0.12591695       0.45970939
H        1.96267832      -1.02187586       2.93399653      -0.66951243      -0.37764492       0.56981302
H       -1.96267850       1.02187555       2.86878325       0.66951243       0.37764492      -0.56981302
H       -0.09636868       2.21066717       2.93399653       0.66180632      -0.39099229       0.56981302
H        0.09636904      -2.21066717       2.86878325      -0.66180632       0.39099229      -0.56981302
H       -1.86630964      -1.18879131       2.93399653       0.00770611       0.76863720       0.56981302
H        1.86630946       1.18879162       2.86878325      -0.00770611      -0.76863720      -0.56981302
H        2.32358132      -2.45971770       2.49646808      -0.77013076      -0.54684896       0.37824964
H       -2.32358132       2.45971759       3.30631167       0.77013076       0.54684896      -0.37824964
H        0.96838740       3.24213925       2.49646808       0.85865050      -0.39352816       0.37824964
H       -0.96838731      -3.24213919       3.30631167      -0.85865050       0.39352816      -0.37824964
H       -3.29196872      -0.78242155       2.49646808      -0.08851974       0.94037738       0.37824964
H        3.29196863       0.78242160       3.30631167       0.08851974      -0.94037738      -0.37824964
36
Lattice="6.0239956543349376 -3.4779554256071186 1.9342599260963327 0.0 6.955910851214237 1.9342599260963327 -6.0239956543349376 -3.4779554256071186 1.9342599260963327" Properties=species:S:1:pos:R:3:forces:R:3 energy=-5685.9224984390285 free_energy=-5685.9224984390285 stress="-0.04025019353511356 0.0 -0.0 0.0 -0.04025019353511356 -0.0 -0.0 -0.0 -0.0462145454034492" pbc="T T T"
O       -3.50338007      -3.76384199       2.21458066      -0.38671937       0.82387607       0.63485242
O        3.50338025       3.76384217       3.58819908       0.38671937      -0.82387607      -0.63485242
O        5.01127289      -1.15209507       2.21458066      -0.52013803      -0.74684685       0.63485242
O       -5.01127314       1.15209514       3.58819908       0.52013803       0.74684685      -0.63485242
O       -1.50789282       4.91593706       2.21458066       0.90685740      -0.07702922       0.63485242
O        1.50789289      -4.91593731       3.58819908      -0.90685740       0.07702922      -0.63485242
O        0.89939197       2.38643111       3.02890220      -0.74899963       0.49729789      -0.57328041
O       -0.89939179      -2.38643101       2.77387752       0.74899963      -0.49729789       0.57328041
O       -2.51640600      -0.41431928       3.02890220      -0.05617269      -0.89730163      -0.57328041
O        2.51640582       0.41431939       2.77387752       0.05617269       0.89730163       0.57328041
O        1.61701403      -1.97211183       3.02890220       0.80517232       0.40000400      -0.57328041
O       -1.61701403       1.97211162       2.77387752      -0.80517232      -0.40000400       0.57328041
H       -3.91232254      -2.87548551       1.93985032      -0.04549156      -0.35924765      -0.80901509
H        3.91232245       2.87548550       3.86292942       0.04549156       0.35924765       0.80901509
H        4.44640483      -1.95042787       1.93985032       0.33386314       0.14022694      -0.80901509
H       -4.44640478       1.95042780       3.86292942      -0.33386314      -0.14022694       0.80901509
H       -0.53408229       4.82591337       1.93985032      -0.28837185       0.21902045      -0.80901509
H        0.53408233      -4.82591329       3.86292942       0.28837185      -0.21902045       0.80901509
H       -3.48225680      -3.51161184       3.19943404       0.59293033      -0.63705740      -0.15920168
H        3.48225692       3.51161202       2.60334573      -0.59293033       0.63705740       0.15920168
H        4.78227354      -1.25991685       3.19943404       0.25524267       0.83202158      -0.15920168
H       -4.78227375       1.25991688       2.60334573      -0.25524267      -0.83202158       0.15920168
H       -1.30001674       4.77152869       3.19943404      -0.84817299      -0.19496418      -0.15920168
H        1.30001683      -4.77152889       2.60334573       0.84817299       0.19496418       0.15920168
H        1.95272527      -1.01811516       2.94458110      -0.31177840      -0.13593551       0.39556756
H       -1.95272545       1.01811484       2.85819868       0.31177840       0.13593551      -0.39556756
H       -0.09464902       2.20016723       2.94458110       0.27361268      -0.20204037       0.39556756
H        0.09464939      -2.20016723       2.85819868      -0.27361268       0.20204037      -0.39556756
H       -1.85807625      -1.18205207       2.94458110       0.03816571       0.33797562       0.39556756
H        1.85807607       1.18205238       2.85819868      -0.03816571      -0.33797562      -0.39556756
H        2.31474258      -2.47629416       2.49886532      -0.48090736      -0.35313588       0.21388390
H       -2.31474258       2.47629406       3.30391443       0.48090736       0.35313588      -0.21388390
H        0.98716241       3.24277291       2.49886532       0.54627843      -0.23990989       0.21388390
H       -0.98716232      -3.24277286       3.30391443      -0.54627843       0.23990989      -0.21388390
H       -3.30190499      -0.76647875       2.49886532      -0.06537107       0.59304577       0.21388390
H        3.30190490       0.76647880       3.30391443       0.06537107      -0.59304577      -0.21388390
36
Lattice="6.0239956543349376 -3.4779554256071186 1.9342599260963327 0.0 6.955910851214237 1.9342599260963327 -6.0239956543349376 -3.4779554256071186 1.9342599260963327" Properties=species:S:1:pos:R:3:forces:R:3 energy=-5686.434003746957 free_energy=-5686.434003746957 stress="-0.05018374077395643 -0.0 0.0 -0.0 -0.05018374077395643 -0.0 0.0 -0.0 -0.05355980632504482" pbc="T T T"
O       -3.51321378      -3.74520606       2.22809437      -0.12142703       0.25827014       0.16263410
O        3.51321396       3.74520624       3.57468537       0.12142703      -0.25827014      -0.16263410
O        5.00005056      -1.16992928       2.22809437      -0.16295498      -0.23429409       0.16263410
O       -5.00005080       1.16992934       3.57468537       0.16295498       0.23429409      -0.16263410
O       -1.48683678       4.91513533       2.22809437       0.28438201      -0.02397631       0.16263410
O        1.48683685      -4.91513558       3.57468537      -0.28438201       0.02397631      -0.16263410
O        0.88397183       2.39737996       3.01541434      -0.22811830       0.04887230      -0.25342104
O       -0.88397165      -2.39737986       2.78736538       0.22811830      -0.04887230       0.25342104
O       -2.51817792      -0.43314793       3.01541434       0.07173429      -0.22199239      -0.25342104
O        2.51817774       0.43314804       2.78736538      -0.07173429       0.22199239       0.25342104
O        1.63420608      -1.96423203       3.01541434       0.15638401       0.17312009      -0.25342104
O       -1.63420608       1.96423182       2.78736538      -0.15638401      -0.17312009       0.25342104
H       -3.91771861      -2.87942489       1.90776394      -0.09564118      -0.16425853      -0.38593621
H        3.91771853       2.87942488       3.89501580       0.09564118       0.16425853       0.38593621
H        4.45251447      -1.95313131       1.90776394       0.19007266      -0.00069831      -0.38593621
H       -4.45251442       1.95313125       3.89501580      -0.19007266       0.00069831       0.38593621
H       -0.53479586       4.83255621       1.90776394      -0.09443148       0.16495684      -0.38593621
H        0.53479589      -4.83255613       3.89501580       0.09443148      -0.16495684       0.38593621
H       -3.46159815      -3.53214783       3.20680469       0.39616560      -0.19160272      -0.01102566
H        3.46159828       3.53214801       2.59597507      -0.39616560       0.19160272       0.01102566
H        4.78972890      -1.23175795       3.20680469      -0.03214985       0.43889091      -0.01102566
H       -4.78972912       1.23175797       2.59597507       0.03214985      -0.43889091       0.01102566
H       -1.32813075       4.76390578       3.20680469      -0.36401576      -0.24728793      -0.01102566
H        1.32813084      -4.76390598       2.59597507       0.36401576       0.24728793       0.01102566
H        1.94558012      -1.01153106       2.95684474       0.00571813       0.00067466       0.22659621
H       -1.94558030       1.01153075       2.84593504      -0.00571813      -0.00067466      -0.22659621
H       -0.09677844       2.19068729       2.95684474      -0.00344348       0.00461462       0.22659621
H        0.09677880      -2.19068729       2.84593504       0.00344348      -0.00461462      -0.22659621
H       -1.84880168      -1.17915623       2.95684474      -0.00227465      -0.00528953       0.22659621
H        1.84880150       1.17915655       2.84593504       0.00227465       0.00528953      -0.22659621
H        2.30530892      -2.49364805       2.50085898      -0.08751290      -0.24993000      -0.03263064
H       -2.30530892       2.49364795       3.30192077       0.08751290       0.24993000       0.03263064
H        1.00690815       3.24328006       2.50085898       0.26020232       0.04917672      -0.03263064
H       -1.00690806      -3.24328001       3.30192077      -0.26020232      -0.04917672       0.03263064
H       -3.31221707      -0.74963201       2.50085898      -0.17268943       0.20075353      -0.03263064
H        3.31221698       0.74963207       3.30192077       0.17268943      -0.20075353       0.03263064
36
Lattice="6.0239956543349376 -3.4779554256071186 1.9342599260963327 0.0 6.955910851214237 1.9342599260963327 -6.0239956543349376 -3.4779554256071186 1.9342599260963327" Properties=species:S:1:pos:R:3:forces:R:3 energy=-5686.572315673666 free_energy=-5686.572315673666 stress="-0.05220368752739522 -0.0 0.0 -0.0 -0.05220368752739522 -0.0 0.0 -0.0 -0.0512331949281294" pbc="T T T"
O       -3.52008194      -3.73249906       2.23615912       0.05237131      -0.10095488      -0.09183852
O        3.52008212       3.73249924       3.56662062      -0.05237131       0.10095488       0.09183852
O        4.99248005      -1.18223078       2.23615912       0.06124393       0.09583247      -0.09183852
O       -4.99248030       1.18223084       3.56662062      -0.06124393      -0.09583247       0.09183852
O       -1.47239811       4.91472983       2.23615912      -0.11361525       0.00512241      -0.09183852
O        1.47239818      -4.91473008       3.56662062       0.11361525      -0.00512241       0.09183852
O        0.87375571       2.40083439       3.00410003       0.15036891       0.02597791      -0.17506101
O       -0.87375553      -2.40083428       2.79867969      -0.15036891      -0.02597791       0.17506101
O       -2.51606148      -0.44372257       3.00410003      -0.09768187       0.11723433      -0.17506101
O        2.51606130       0.44372268       2.79867969       0.09768187      -0.11723433       0.17506101
O        1.64230577      -1.95711182       3.00410003      -0.05268705      -0.14321225      -0.17506101
O       -1.64230577       1.95711161       2.79867969       0.05268705       0.14321225       0.17506101
H       -3.92436532      -2.88346377       1.88058060      -0.09821408      -0.05802774      -0.04398900
H        3.92436524       2.88346377       3.92219913       0.09821408       0.05802774       0.04398900
H        4.45933560      -1.95686809       1.88058060       0.09936054      -0.05604208      -0.04398900
H       -4.45933555       1.95686802       3.92219913      -0.09936054       0.05604208       0.04398900
H       -0.53497028       4.84033186       1.88058060      -0.00114645       0.11406982      -0.04398900
H        0.53497032      -4.84033179       3.92219913       0.00114645      -0.11406982       0.04398900
H       -3.44010421      -3.54632975       3.21385255       0.22754443       0.11888524      -0.00882120
H        3.44010433       3.54632993       2.58892722      -0.22754443      -0.11888524       0.00882120
H        4.79126384      -1.20605268       3.21385255      -0.21672986       0.13761650      -0.00882120
H       -4.79126405       1.20605271       2.58892722       0.21672986      -0.13761650       0.00882120
H       -1.35115963       4.75238244       3.21385255      -0.01081457      -0.25650174      -0.00882120
H        1.35115972      -4.75238264       2.58892722       0.01081457       0.25650174       0.00882120
H        1.94410663      -1.00491623       2.96878394       0.18527344       0.05913383       0.10904228
H       -1.94410681       1.00491592       2.83399584      -0.18527344      -0.05913383      -0.10904228
H       -0.10177031       2.18610380       2.96878394      -0.14384808       0.13088458       0.10904228
H        0.10177067      -2.18610380       2.83399584       0.14384808      -0.13088458      -0.10904228
H       -1.84233632      -1.18118757       2.96878394      -0.04142536      -0.19001841       0.10904228
H        1.84233614       1.18118788       2.83399584       0.04142536       0.19001841      -0.10904228
H        2.30136986      -2.51094484       2.49850509      -0.01031038      -0.00785523      -0.04698408
H       -2.30136986       2.51094474       3.30427466       0.01031038       0.00785523       0.04698408
H        1.02385714       3.24851714       2.49850509       0.01195794      -0.00500131      -0.04698408
H       -1.02385705      -3.24851709       3.30427466      -0.01195794       0.00500131       0.04698408
H       -3.32522701      -0.73757229       2.49850509      -0.00164782       0.01285654      -0.04698408
H        3.32522692       0.73757235       3.30427466       0.00164782      -0.01285654       0.04698408
36
Lattice="6.0239956543349376 -3.4779554256071186 1.9342599260963327 0.0 6.955910851214237 1.9342599260963327 -6.0239956543349376 -3.4779554256071186 1.9342599260963327" Properties=species:S:1:pos:R:3:forces:R:3 energy=-5686.596987827245 free_energy=-5686.596987827245 stress="-0.05112577048715107 -0.0 -0.0 -0.0 -0.05112577048715107 -0.0 -0.0 -0.0 -0.04884047618291963" pbc="T T T"
O       -3.52046201      -3.73186829       2.23617116       0.05380239      -0.09521078      -0.05377205
O        3.52046219       3.73186847       3.56660858      -0.05380239       0.09521078       0.05377205
O        4.99212383      -1.18287532       2.23617116       0.05555383       0.09419956      -0.05377205
O       -4.99212407       1.18287538       3.56660858      -0.05555383      -0.09419956       0.05377205
O       -1.47166181       4.91474360       2.23617116      -0.10935622       0.00101121      -0.05377205
O        1.47166188      -4.91474385       3.56660858       0.10935622      -0.00101121       0.05377205
O        0.87475388       2.40252445       2.99785923       0.03909234      -0.14093039      -0.06810132
O       -0.87475370      -2.40252434       2.80492049      -0.03909234       0.14093039       0.06810132
O       -2.51802420      -0.44370316       2.99785923       0.10250320       0.10432020      -0.06810132
O        2.51802401       0.44370327       2.80492049      -0.10250320      -0.10432020       0.06810132
O        1.64327032      -1.95882129       2.99785923      -0.14159554       0.03661045      -0.06810132
O       -1.64327032       1.95882108       2.80492049       0.14159554      -0.03661045       0.06810132
H       -3.92764566      -2.88571992       1.87441625      -0.07525310      -0.06622853       0.02393748
H        3.92764558       2.88571991       3.92836349       0.07525310       0.06622853      -0.02393748
H        4.46292965      -1.95858088       1.87441625       0.09498221      -0.03205677       0.02393748
H       -4.46292961       1.95858081       3.92836349      -0.09498221       0.03205677      -0.02393748
H       -0.53528399       4.84430080       1.87441625      -0.01972910       0.09828556       0.02393748
H        0.53528403      -4.84430072       3.92836349       0.01972910      -0.09828556      -0.02393748
H       -3.43101500      -3.54663468       3.21458230       0.18152040       0.14509661      -0.07441672
H        3.43101512       3.54663485       2.58819747      -0.18152040      -0.14509661       0.07441672
H        4.78698330      -1.19802873       3.21458230      -0.21641747       0.08465280      -0.07441672
H       -4.78698352       1.19802875       2.58819747       0.21641747      -0.08465280       0.07441672
H       -1.35596831       4.74466341       3.21458230       0.03489733      -0.22974941      -0.07441672
H        1.35596840      -4.74466361       2.58819747      -0.03489733       0.22974941       0.07441672
H        1.94763850      -1.00262336       2.97351488       0.16082764      -0.07411513       0.08085965
H       -1.94763868       1.00262304       2.82926490      -0.16082764       0.07411513      -0.08085965
H       -0.10552193       2.18801606       2.97351488      -0.01622829       0.17633834       0.08085965
H        0.10552229      -2.18801606       2.82926490       0.01622829      -0.17633834      -0.08085965
H       -1.84211657      -1.18539270       2.97351488      -0.14459936      -0.10222321       0.08085965
H        1.84211639       1.18539301       2.82926490       0.14459936       0.10222321      -0.08085965
H        2.29999713      -2.51423459       2.49732184       0.08606459      -0.03616051      -0.11542968
H       -2.29999713       2.51423449       3.30545791      -0.08606459       0.03616051       0.11542968
H        1.02739252       3.24897319       2.49732184      -0.01171652       0.09261448      -0.11542968
H       -1.02739243      -3.24897314       3.30545791       0.01171652      -0.09261448       0.11542968
H       -3.32738965      -0.73473860       2.49732184      -0.07434833      -0.05645397      -0.11542968
H        3.32738956       0.73473865       3.30545791       0.07434833       0.05645397       0.11542968
36
Lattice="6.0239956543349376 -3.4779554256071186 1.9342599260963327 0.0 6.955910851214237 1.9342599260963327 -6.0239956543349376 -3.4779554256071186 1.9342599260963327" Properties=species:S:1:pos:R:3:forces:R:3 energy=-5686.621728145343 free_energy=-5686.621728145343 stress="-0.04998450057145815 -0.0 -0.0 -0.0 -0.04998450057145815 -0.0 -0.0 -0.0 -0.04627973459412837" pbc="T T T"
O       -3.52016140      -3.73230109       2.23588956       0.04657862      -0.07545416      -0.04476779
O        3.52016158       3.73230127       3.56689018      -0.04657862       0.07545416       0.04476779
O        4.99234834      -1.18239857       2.23588956       0.04205605       0.07806538      -0.04476779
O       -4.99234859       1.18239864       3.56689018      -0.04205605      -0.07806538       0.04476779
O       -1.47218694       4.91469967       2.23588956      -0.08863467      -0.00261121      -0.04476779
O        1.47218701      -4.91469992       3.56689018       0.08863467       0.00261121       0.04476779
O        0.87529107       2.40145483       2.99204657       0.03413654      -0.10098959      -0.04687224
O       -0.87529089      -2.40145473       2.81073315      -0.03413654       0.10098959       0.04687224
O       -2.51736648      -0.44270313       2.99204657       0.07039141       0.08005798      -0.04687224
O        2.51736630       0.44270324       2.81073315      -0.07039141      -0.08005798       0.04687224
O        1.64207541      -1.95875170       2.99204657      -0.10452794       0.02093187      -0.04687224
O       -1.64207541       1.95875149       2.81073315       0.10452794      -0.02093187       0.04687224
H       -3.93118792      -2.88876410       1.86998187      -0.04943203      -0.07534541       0.06250712
H        3.93118783       2.88876410       3.93279787       0.04943203       0.07534541      -0.06250712
H        4.46733712      -1.96012647       1.86998187       0.08996701      -0.00513655       0.06250712
H       -4.46733707       1.96012640       3.93279787      -0.08996701       0.00513655      -0.06250712
H       -0.53614920       4.84889057       1.86998187      -0.04053498       0.08048196       0.06250712
H        0.53614924      -4.84889049       3.93279787       0.04053498      -0.08048196      -0.06250712
H       -3.42118732      -3.54488693       3.21354228       0.14062212       0.15241602      -0.09071598
H        3.42118744       3.54488710       2.58923749      -0.14062212      -0.15241602       0.09071598
H        4.78055587      -1.19039159       3.21354228      -0.20230725       0.04557435      -0.09071598
H       -4.78055608       1.19039161       2.58923749       0.20230725      -0.04557435       0.09071598
H       -1.35936855       4.73527851       3.21354228       0.06168514      -0.19799037      -0.09071598
H        1.35936864      -4.73527871       2.58923749      -0.06168514       0.19799037       0.09071598
H        1.95252087      -1.00262259       2.97847046       0.13335875      -0.11030727       0.05336376
H       -1.95252105       1.00262227       2.82430932      -0.13335875       0.11030727      -0.05336376
H       -0.10796378       2.19224393       2.97847046       0.02884958       0.17064566       0.05336376
H        0.10796414      -2.19224393       2.82430932      -0.02884958      -0.17064566      -0.05336376
H       -1.84455709      -1.18962134       2.97847046      -0.16220833      -0.06033839       0.05336376
H        1.84455691       1.18962165       2.82430932       0.16220833       0.06033839      -0.05336376
H        2.30024488      -2.51747625       2.49461836       0.06903952       0.01231327      -0.09832336
H       -2.30024488       2.51747614       3.30816139      -0.06903952      -0.01231327       0.09832336
H        1.03007600       3.25080858       2.49461836      -0.04518328       0.05363347      -0.09832336
H       -1.03007590      -3.25080853       3.30816139       0.04518328      -0.05363347       0.09832336
H       -3.33032088      -0.73333233       2.49461836      -0.02385624      -0.06594674      -0.09832336
H        3.33032079       0.73333238       3.30816139       0.02385624       0.06594674       0.09832336
36
Lattice="6.0239956543349376 -3.4779554256071186 1.9342599260963327 0.0 6.955910851214237 1.9342599260963327 -6.0239956543349376 -3.4779554256071186 1.9342599260963327" Properties=species:S:1:pos:R:3:forces:R:3 energy=-5686.653146681268 free_energy=-5686.653146681268 stress="-0.0493950433825001 0.0 -0.0 0.0 -0.0493950433825001 -0.0 -0.0 -0.0 -0.04355280647698599" pbc="T T T"
O       -3.51897946      -3.73399888       2.23458612       0.03172330      -0.03652098       0.00049442
O        3.51897964       3.73399906       3.56819362      -0.03172330       0.03652098      -0.00049442
O        4.99322770      -1.18052609       2.23458612       0.01576652       0.04573375       0.00049442
O       -4.99322794       1.18052615       3.56819362      -0.01576652      -0.04573375      -0.00049442