36
Lattice="6.919805631741866 -3.99515154426524 2.2218978063541965 0.0 7.99030308853048 2.2218978063541965 -6.919805631741866 -3.99515154426524 2.2218978063541965" Properties=species:S:1:pos:R:3:forces:R:3 energy=-5683.5138538160445 free_energy=-5683.5138538160445 stress="0.07924710192547987 -0.0 -0.0 -0.0 0.07924710192547987 0.0 -0.0 0.0 0.058146921770581284" pbc="T T T"
O       -4.02040768      -4.31076903       2.55740472      -1.56761214       3.71891715       2.20985931
O        4.02040768       4.31076986       4.10828953       1.56761214      -3.71891715      -2.20985931
O        5.74343942      -1.32639028       2.55740472      -2.43687075      -3.21705066       2.20985931
O       -5.74344025       1.32639028       4.10828953       2.43687075       3.21705066      -2.20985931
O       -1.72303174       5.63716014       2.55740472       4.00448289      -0.50186648       2.20985931
O        1.72303174      -5.63716014       4.10828953      -4.00448289       0.50186648      -2.20985931
O        1.01029177       2.75665556       3.46616108      -2.46903062       1.79067848      -1.64402995
O       -1.01029177      -2.75665556       3.19953317       2.46903062      -1.79067848       1.64402995
O       -2.89247953      -0.50338933       3.46616108      -0.31625777      -3.03358266      -1.64402995
O        2.89247953       0.50338933       3.19953317       0.31625777       3.03358266       1.64402995
O        1.88218776      -2.25326623       3.46616108       2.78528840       1.24290392      -1.64402995
O       -1.88218776       2.25326540       3.19953317      -2.78528840      -1.24290392       1.64402995
H       -4.46327534      -3.34394256       2.31966134       0.87431829      -2.31797111      -0.64921589
H        4.46327534       3.34394256       4.34603291      -0.87431829       2.31797111       0.64921589
H        5.12757724      -2.19333838       2.31966134       1.57026269       1.91616760      -0.64921589
H       -5.12757724       2.19333838       4.34603291      -1.57026269      -1.91616760       0.64921589
H       -0.66430190       5.53728094       2.31966134      -2.44458123       0.40180377      -0.64921589
H        0.66430190      -5.53728094       4.34603291       2.44458123      -0.40180377       0.64921589
H       -4.04116709      -3.99515237       3.58836550       0.67177732      -1.54115703      -1.77327288
H        4.04116709       3.99515237       3.07732875      -0.67177732       1.54115703       1.77327288
H        5.48048719      -1.50217721       3.58836550       0.99879259       1.35235475      -1.77327288
H       -5.48048719       1.50217721       3.07732875      -0.99879259      -1.35235475       1.77327288
H       -1.43932010       5.49732959       3.58836550      -1.67056965       0.18880253      -1.77327288
H        1.43932010      -5.49732959       3.07732875       1.67056965      -0.18880253       1.77327288
H        2.24201696      -1.24648758       3.36617572      -0.92773193      -2.07119920       0.42387284
H       -2.24201779       1.24648758       3.29951853       0.92773193       2.07119920      -0.42387284
H       -0.04151882       2.56488792       3.36617572       2.25757719       0.23216007       0.42387284
H        0.04151882      -2.56488792       3.29951853      -2.25757719      -0.23216007      -0.42387284
H       -2.20049814      -1.31840034       3.36617572      -1.32984526       1.83903913       0.42387284
H        2.20049814       1.31840034       3.29951853       1.32984526      -1.83903913      -0.42387284
H        2.63644655      -2.77663124       2.89735527      -2.02256781       0.88240106       1.41787983
H       -2.63644655       2.77663124       3.76833898       2.02256781      -0.88240106      -1.41787983
H        1.08641016       3.67154495       2.89735527       0.24710230      -2.19279567       1.41787983
H       -1.08640933      -3.67154495       3.76833898      -0.24710230       2.19279567      -1.41787983
H       -3.72285588      -0.89491371       2.89735527       1.77546552       1.31039461       1.41787983
H        3.72285588       0.89491371       3.76833898      -1.77546552      -1.31039461      -1.41787983
36
Lattice="6.919805631741866 -3.99515154426524 2.2218978063541965 0.0 7.99030308853048 2.2218978063541965 -6.919805631741866 -3.99515154426524 2.2218978063541965" Properties=species:S:1:pos:R:3:forces:R:3 energy=-5687.296131545587 free_energy=-5687.296131545587 stress="0.006246226256201869 -0.0 0.0 -0.0 0.006246226256201869 0.0 0.0 0.0 -0.009636064171518246" pbc="T T T"
O       -4.05267101      -4.23422672       2.60288701      -0.05099680      -0.15987222      -0.20691904
O        4.05267122       4.23422693       4.06280636       0.05099680       0.15987222       0.20691904
O        5.69328350      -1.39260260       2.60288701       0.16395179       0.03577176      -0.20691904
O       -5.69328379       1.39260268       4.06280636      -0.16395179      -0.03577176       0.20691904
O       -1.64061249       5.62682932       2.60288701      -0.11295499       0.12410046      -0.20691904
O        1.64061257      -5.62682961       4.06280636       0.11295499      -0.12410046       0.20691904
O        0.95947472       2.79350991       3.43232356       0.20938113      -0.22811264       0.10433948
O       -0.95947451      -2.79350979       3.23336979      -0.20938113       0.22811264      -0.10433948
O       -2.89898797      -0.56582549       3.43232356       0.09286053       0.29538581       0.10433948
O        2.89898776       0.56582561       3.23336979      -0.09286053      -0.29538581      -0.10433948
O        1.93951325      -2.22768442       3.43232356      -0.30224192      -0.06727317       0.10433948
O       -1.93951325       2.22768418       3.23336979       0.30224192       0.06727317      -0.10433948
H       -4.44527963      -3.39164972       2.30629935      -0.33230120       0.41254430      -0.88150375
H        4.44527953       3.39164971       4.35939402       0.33230120      -0.41254430       0.88150375
H        5.15989470      -2.15390013       2.30629935      -0.19112321      -0.49405341      -0.88150375
H       -5.15989465       2.15390005       4.35939402       0.19112321       0.49405341       0.88150375
H       -0.71461507       5.54554985       2.30629935       0.52342467       0.08150911      -0.88150375
H        0.71461512      -5.54554976       4.35939402      -0.52342467      -0.08150911       0.88150375
H       -4.02734010      -4.02687108       3.55186788       0.43276243      -0.33030062       0.97304273
H        4.02734025       4.02687129       3.11382552      -0.43276243       0.33030062      -0.97304273
H        5.50104279      -1.47434321       3.55186788       0.06966738       0.53993372       0.97304273
H       -5.50104304       1.47434323       3.11382552      -0.06966738      -0.53993372      -0.97304273
H       -1.47370269       5.50121429       3.55186788      -0.50242981      -0.20963310       0.97304273
H        1.47370280      -5.50121452       3.11382552       0.50242981       0.20963310      -0.97304273
H        2.22292251      -1.28911614       3.37489917       0.21583511       0.18953941      -0.01068756
H       -2.22292272       1.28911578       3.29079425      -0.21583511      -0.18953941       0.01068756
H        0.00494610       2.56966539       3.37489917      -0.27206360       0.09214911      -0.01068756
H       -0.00494569      -2.56966539       3.29079425       0.27206360      -0.09214911       0.01068756
H       -2.22786861      -1.28054924       3.37489917       0.05622823      -0.28168852      -0.01068756
H        2.22786840       1.28054960       3.29079425      -0.05622823       0.28168852       0.01068756
H        2.59481791      -2.75846909       2.92653715       0.02359270      -0.07397141      -0.04417747
H       -2.59481791       2.75846897       3.73915624      -0.02359270       0.07397141       0.04417747
H        1.09149541       3.62641272       2.92653715       0.05226461       0.05741762      -0.04417747
H       -1.09149531      -3.62641266       3.73915624      -0.05226461      -0.05741762       0.04417747
H       -3.68631333      -0.86794363       2.92653715      -0.07585731       0.01655379      -0.04417747
H        3.68631322       0.86794369       3.73915624       0.07585731      -0.01655379       0.04417747
36
Lattice="6.919805631741866 -3.99515154426524 2.2218978063541965 0.0 7.99030308853048 2.2218978063541965 -6.919805631741866 -3.99515154426524 2.2218978063541965" Properties=species:S:1:pos:R:3:forces:R:3 energy=-5687.484712286223 free_energy=-5687.484712286223 stress="0.01215824314047114 -0.0 -0.0 -0.0 0.01215824314047114 0.0 -0.0 0.0 0.005943234243186051" pbc="T T T"
O       -4.05471673      -4.23474226       2.60044126      -0.15690388       0.26911891       0.32813884
O        4.05471694       4.23474246       4.06525211       0.15690388      -0.26911891      -0.32813884
O        5.69475283      -1.39411648       2.60044126      -0.15461200      -0.27044226       0.32813884
O       -5.69475311       1.39411656       4.06525211       0.15461200       0.27044226      -0.32813884
O       -1.64003610       5.62885874       2.60044126       0.31151589       0.00132309       0.32813884
O        1.64003617      -5.62885902       4.06525211      -0.31151589      -0.00132309      -0.32813884
O        0.96179049       2.79037268       3.43319498       0.02815821      -0.17071765       0.03075579
O       -0.96179028      -2.79037256       3.23249837      -0.02815821       0.17071765      -0.03075579
O       -2.89742893      -0.56225136       3.43319498       0.13376678       0.10974471       0.03075579
O        2.89742872       0.56225148       3.23249837      -0.13376678      -0.10974471      -0.03075579
O        1.93563844      -2.22812132       3.43319498      -0.16192499       0.06097294       0.03075579
O       -1.93563844       2.22812108       3.23249837       0.16192499      -0.06097294      -0.03075579
H       -4.45103449      -3.38534717       2.28900537      -0.12393154      -0.01554489      -0.52952538
H        4.45103439       3.38534716       4.37668800       0.12393154       0.01554489       0.52952538
H        5.15731396      -2.16203526       2.28900537       0.07542794      -0.09955543      -0.52952538
H       -5.15731391       2.16203518       4.37668800      -0.07542794       0.09955543       0.52952538
H       -0.70627948       5.54738243       2.28900537       0.04850360       0.11510032      -0.52952538
H        0.70627952      -5.54738234       4.37668800      -0.04850360      -0.11510032       0.52952538
H       -4.01860867      -4.03423779       3.56925680       0.32766113      -0.33295503       0.09198584
H        4.01860882       4.03423800       3.09643661      -0.32766113       0.33295503      -0.09198584
H        5.50305684      -1.46309821       3.56925680       0.12451698       0.45024053       0.09198584
H       -5.50305709       1.46309824       3.09643661      -0.12451698      -0.45024053      -0.09198584
H       -1.48444816       5.49733601       3.56925680      -0.45217811      -0.11728524       0.09198584
H        1.48444827      -5.49733623       3.09643661       0.45217811       0.11728524      -0.09198584
H        2.22641456      -1.28690789       3.37498444       0.13177752       0.01800518       0.02337827
H       -2.22641477       1.28690753       3.29070898      -0.13177752      -0.01800518      -0.02337827
H        0.00128767       2.57158547       3.37498444      -0.08148160       0.10512007       0.02337827
H       -0.00128726      -2.57158547       3.29070898       0.08148160      -0.10512007      -0.02337827
H       -2.22770223      -1.28467758       3.37498444      -0.05029592      -0.12312525       0.02337827
H        2.22770203       1.28467794       3.29070898       0.05029592       0.12312525      -0.02337827
H        2.59388722      -2.75928030       2.92666127      -0.04024933      -0.04861879       0.00646067
H       -2.59388722       2.75928018       3.73903212       0.04024933       0.04861879      -0.00646067
H        1.09266329       3.62601232       2.92666127       0.06222970      -0.01054769       0.00646067
H       -1.09266318      -3.62601226       3.73903212      -0.06222970       0.01054769      -0.00646067
H       -3.68655050      -0.86673202       2.92666127      -0.02198036       0.05916623       0.00646067
H        3.68655040       0.86673208       3.73903212       0.02198036      -0.05916623      -0.00646067
36
Lattice="6.919805631741866 -3.99515154426524 2.2218978063541965 0.0 7.99030308853048 2.2218978063541965 -6.919805631741866 -3.99515154426524 2.2218978063541965" Properties=species:S:1:pos:R:3:forces:R:3 energy=-5687.618759100625 free_energy=-5687.618759100625 stress="0.0157418123125946 0.0 0.0 0.0 0.0157418123125946 0.0 0.0 0.0 0.010837014332199128" pbc="T T T"
O       -4.06208957      -4.22427190       2.61075667      -0.12564570       0.14948728       0.01290797
O        4.06208978       4.22427211       4.05493671       0.12564570      -0.14948728      -0.01290797
O        5.68937166      -1.40573672       2.61075667      -0.06663682      -0.18355594       0.01290797
O       -5.68937194       1.40573680       4.05493671       0.06663682       0.18355594      -0.01290797
O       -1.62728209       5.63000862       2.61075667       0.19228252       0.03406866       0.01290797
O        1.62728216      -5.63000891       4.05493671      -0.19228252      -0.03406866      -0.01290797
O        0.96298154       2.78357607       3.43393049      -0.03812175       0.01985689      -0.10822365
O       -0.96298133      -2.78357595       3.23176286       0.03812175      -0.01985689       0.10822365
O       -2.89213842      -0.55782158       3.43393049       0.00186431      -0.04294282      -0.10822365
O        2.89213822       0.55782170       3.23176286      -0.00186431       0.04294282       0.10822365
O        1.92915688      -2.22575449       3.43393049       0.03625744       0.02308594      -0.10822365
O       -1.92915688       2.22575425       3.23176286      -0.03625744      -0.02308594       0.10822365
H       -4.45854101      -3.38282299       2.25955001      -0.00146861      -0.20749805      -0.04693909
H        4.45854091       3.38282298       4.40614336       0.00146861       0.20749805       0.04693909
H        5.15888122      -2.16979818       2.25955001       0.18043282       0.10247723      -0.04693909
H       -5.15888116       2.16979810       4.40614336      -0.18043282      -0.10247723       0.04693909
H       -0.70034021       5.55262117       2.25955001      -0.17896421       0.10502082      -0.04693909
H        0.70034026      -5.55262108       4.40614336       0.17896421      -0.10502082       0.04693909
H       -4.00157031      -4.05098653       3.58309528       0.16127142      -0.01010469      -0.06378753
H        4.00157046       4.05098673       3.08259812      -0.16127142       0.01010469       0.06378753
H        5.50904249      -1.43996819       3.58309528      -0.07188470       0.14471763      -0.06378753
H       -5.50904274       1.43996822       3.08259812       0.07188470      -0.14471763       0.06378753
H       -1.50747218       5.49095472       3.58309528      -0.08938672      -0.13461293      -0.06378753
H        1.50747228      -5.49095495       3.08259812       0.08938672       0.13461293       0.06378753
H        2.23262309      -1.28591427       3.37603490       0.05783542      -0.04971665       0.05854582
H       -2.23262329       1.28591391       3.28965852      -0.05783542       0.04971665      -0.05854582
H       -0.00267709       2.57646540       3.37603490       0.01413824       0.07494534       0.05854582
H        0.00267751      -2.57646540       3.28965852      -0.01413824      -0.07494534      -0.05854582
H       -2.22994599      -1.29055113       3.37603490      -0.07197366      -0.02522869       0.05854582
H        2.22994579       1.29055149       3.28965852       0.07197366       0.02522869      -0.05854582
H        2.59086859      -2.76096427       2.92770434      -0.15688640       0.02606867       0.09543369
H       -2.59086859       2.76096415       3.73798904       0.15688640      -0.02606867      -0.09543369
H        1.09563096       3.62424009       2.92770434       0.05586724      -0.14890184       0.09543369
H       -1.09563086      -3.62424003       3.73798904      -0.05586724       0.14890184      -0.09543369
H       -3.68649955      -0.86327583       2.92770434       0.10101916       0.12283317       0.09543369
H        3.68649945       0.86327588       3.73798904      -0.10101916      -0.12283317      -0.09543369
36
Lattice="6.919805631741866 -3.99515154426524 2.2218978063541965 0.0 7.99030308853048 2.2218978063541965 -6.919805631741866 -3.99515154426524 2.2218978063541965" Properties=species:S:1:pos:R:3:forces:R:3 energy=-5687.633855840337 free_energy=-5687.633855840337 stress="0.012728419019509999 0.0 -0.0 0.0 0.012728419019509999 0.0 -0.0 0.0 0.01193972162805367" pbc="T T T"
O       -4.06636711      -4.21955891       2.61164878       0.01033378      -0.10071191       0.10916107
O        4.06636732       4.21955912       4.05404460      -0.01033378       0.10071191      -0.10916107
O        5.68742885      -1.41179768       2.61164878       0.08205213       0.05930532       0.10916107
O       -5.68742914       1.41179775       4.05404460      -0.08205213      -0.05930532      -0.10916107
O       -1.62106174       5.63135658       2.61164878      -0.09238591       0.04140659       0.10916107
O        1.62106182      -5.63135687       4.05404460       0.09238591      -0.04140659      -0.10916107
O        0.96254775       2.78282308       3.43146715      -0.02774066      -0.14123018       0.00144650
O       -0.96254754      -2.78282296       3.23422620       0.02774066       0.14123018      -0.00144650
O       -2.89126941      -0.55782076       3.43146715       0.13617925       0.04659122       0.00144650
O        2.89126921       0.55782088       3.23422620      -0.13617925      -0.04659122      -0.00144650
O        1.92872167      -2.22500232       3.43146715      -0.10843885       0.09463922       0.00144650
O       -1.92872167       2.22500208       3.23422620       0.10843885      -0.09463922      -0.00144650
H       -4.46046448      -3.38644375       2.25193319      -0.07401589      -0.02866343      -0.00658819
H        4.46046438       3.38644375       4.41376018       0.07401589       0.02866343       0.00658819
H        5.16297863      -2.16965358       2.25193319       0.06183117      -0.04976782      -0.00658819
H       -5.16297858       2.16965350       4.41376018      -0.06183117       0.04976782       0.00658819
H       -0.70251415       5.55609733       2.25193319       0.01218446       0.07843124      -0.00658819
H        0.70251420      -5.55609724       4.41376018      -0.01218446      -0.07843124       0.00658819
H       -3.99413105      -4.05444439       3.58641394       0.10104513       0.06729245      -0.18694902
H        3.99413119       4.05444460       3.07927946      -0.10104513      -0.06729245       0.18694902
H        5.50831745      -1.43179667       3.58641394      -0.10879957       0.05386153      -0.18694902
H       -5.50831770       1.43179669       3.07927946       0.10879957      -0.05386153       0.18694902
H       -1.51418641       5.48624106       3.58641394       0.00775445      -0.12115398      -0.18694902
H        1.51418651      -5.48624129       3.07927946      -0.00775445       0.12115398       0.18694902
H        2.23532997      -1.28665811       3.37760514       0.05947090      -0.02582005       0.05462951
H       -2.23533018       1.28665775       3.28808828      -0.05947090       0.02582005      -0.05462951
H       -0.00338634       2.57918155       3.37760514      -0.00737470       0.06441333       0.05462951
H        0.00338676      -2.57918155       3.28808828       0.00737470      -0.06441333      -0.05462951
H       -2.23194362      -1.29252343       3.37760514      -0.05209621      -0.03859329       0.05462951
H        2.23194342       1.29252379       3.28808828       0.05209621       0.03859329      -0.05462951
H        2.58646076      -2.76062266       2.93022437      -0.01083180      -0.07761389      -0.01267940
H       -2.58646076       2.76062254       3.73546902       0.01083180       0.07761389       0.01267940
H        1.09753903       3.62025200       2.93022437       0.07263161       0.02942628      -0.01267940
H       -1.09753893      -3.62025194       3.73546902      -0.07263161      -0.02942628       0.01267940
H       -3.68399980      -0.85962934       2.93022437      -0.06179981       0.04818762      -0.01267940
H        3.68399969       0.85962940       3.73546902       0.06179981      -0.04818762       0.01267940
36
Lattice="6.919805631741866 -3.99515154426524 2.2218978063541965 0.0 7.99030308853048 2.2218978063541965 -6.919805631741866 -3.99515154426524 2.2218978063541965" Properties=species:S:1:pos:R:3:forces:R:3 energy=-5687.644537669073 free_energy=-5687.644537669073 stress="0.012871651607481114 -0.0 0.0 -0.0 0.012871651607481114 0.0 0.0 0.0 0.010495459699344931" pbc="T T T"
O       -4.06792377      -4.22008780       2.61369202      -0.00329050      -0.10684682      -0.06256060
O        4.06792397       4.22008800       4.05200136       0.00329050       0.10684682       0.06256060
O        5.68866521      -1.41288134       2.61369202       0.09417745       0.05057386      -0.06256060
O       -5.68866550       1.41288141       4.05200136      -0.09417745      -0.05057386       0.06256060
O       -1.62074145       5.63296913       2.61369202      -0.09088695       0.05627296      -0.06256060
O        1.62074152      -5.63296942       4.05200136       0.09088695      -0.05627296       0.06256060
O        0.96193361       2.77951636       3.43040243       0.04532881      -0.05942462      -0.02283628
O       -0.96193340      -2.77951624       3.23529093      -0.04532881       0.05942462       0.02283628
O       -2.88809865      -0.55669926       3.43040243       0.02879893       0.06896830      -0.02283628
O        2.88809844       0.55669938       3.23529093      -0.02879893      -0.06896830       0.02283628
O        1.92616504      -2.22281710       3.43040243      -0.07412773      -0.00954342      -0.02283628
O       -1.92616504       2.22281686       3.23529093       0.07412773       0.00954342       0.02283628
H       -4.46299527      -3.38842922       2.24846499      -0.05089267      -0.06290975       0.04248414
H        4.46299517       3.38842921       4.41722838       0.05089267       0.06290975      -0.04248414
H        5.16596349      -2.17085258       2.24846499       0.07992788      -0.01261949       0.04248414
H       -5.16596343       2.17085250       4.41722838      -0.07992788       0.01261949      -0.04248414
H       -0.70296822       5.55928179       2.24846499      -0.02903495       0.07552924       0.04248414
H        0.70296826      -5.55928171       4.41722838       0.02903495      -0.07552924      -0.04248414
H       -3.98869949      -4.05429845       3.58452627       0.08662561       0.10817120      -0.06629847
H        3.98869964       4.05429866       3.08116714      -0.08662561      -0.10817120       0.06629847
H        5.50547529      -1.42716577       3.58452627      -0.13699198       0.02093444      -0.06629847
H       -5.50547554       1.42716580       3.08116714       0.13699198      -0.02093444       0.06629847
H       -1.51677580       5.48146423       3.58452627       0.05036611      -0.12910563      -0.06629847
H        1.51677590      -5.48146445       3.08116714      -0.05036611       0.12910563       0.06629847
H        2.23785204      -1.28739297       3.37945610       0.06515227       0.03236505       0.04722139
H       -2.23785225       1.28739261       3.28623731      -0.06515227      -0.03236505      -0.04722139
H       -0.00401097       2.58173315       3.37945610      -0.06060502       0.04024085       0.04722139
H        0.00401139      -2.58173315       3.28623731       0.06060502      -0.04024085      -0.04722139
H       -2.23384107      -1.29434018       3.37945610      -0.00454725      -0.07260590       0.04722139
H        2.23384086       1.29434054       3.28623731       0.00454725       0.07260590      -0.04722139
H        2.58428121      -2.76211218       2.93106637      -0.04583583      -0.03957056       0.01290051
H       -2.58428121       2.76211206       3.73462701       0.04583583       0.03957056      -0.01290051
H        1.09991877       3.61910921       2.93106637       0.05718699      -0.01990985       0.01290051
H       -1.09991867      -3.61910915       3.73462701      -0.05718699       0.01990985      -0.01290051
H       -3.68419998      -0.85699703       2.93106637      -0.01135116       0.05948016       0.01290051
H        3.68419988       0.85699709       3.73462701       0.01135116      -0.05948016      -0.01290051
36
Lattice="6.919805631741866 -3.99515154426524 2.2218978063541965 0.0 7.99030308853048 2.2218978063541965 -6.919805631741866 -3.99515154426524 2.2218978063541965" Properties=species:S:1:pos:R:3:forces:R:3 energy=-5687.655157319797 free_energy=-5687.655157319797 stress="0.013072728125209793 0.0 0.0 0.0 0.013072728125209793 0.0 0.0 0.0 0.009703089677427806" pbc="T T T"
O       -4.06943481      -4.22167327       2.61397957       0.00085926      -0.11883973      -0.13031688
O        4.06943502       4.22167348       4.05171381      -0.00085926       0.11883973       0.13031688
O        5.69079379      -1.41339721       2.61397957       0.10248880       0.06016407      -0.13031688
O       -5.69079408       1.41339728       4.05171381      -0.10248880      -0.06016407       0.13031688
O       -1.62135898       5.63507047       2.61397957      -0.10334781       0.05867592      -0.13031688
O        1.62135906      -5.63507076       4.05171381       0.10334781      -0.05867592       0.13031688
O        0.96226241       2.77644364       3.42899379       0.03863082      -0.02984485      -0.02541690
O       -0.96226221      -2.77644352       3.23669957      -0.03863082       0.02984485       0.02541690
O       -2.88560199      -0.55487815       3.42899379       0.00653112       0.04837762      -0.02541690
O        2.88560178       0.55487827       3.23669957      -0.00653112      -0.04837762       0.02541690
O        1.92333958      -2.22156549       3.42899379      -0.04516168      -0.01853277      -0.02541690
O       -1.92333958       2.22156525       3.23669957       0.04516168       0.01853277       0.02541690
H       -4.46550240      -3.39145917       2.24668775      -0.04836194      -0.05793647       0.04719054
H        4.46550230       3.39145916       4.41900562       0.04836194       0.05793647      -0.04719054
H        5.16984107      -2.17150884       2.24668775       0.07435553      -0.01291439       0.04719054
H       -5.16984102       2.17150876       4.41900562      -0.07435553       0.01291439      -0.04719054
H       -0.70433867       5.56296801       2.24668775      -0.02599360       0.07085086       0.04719054
H        0.70433871      -5.56296792       4.41900562       0.02599360      -0.07085086      -0.04719054
H       -3.98315080      -4.05248276       3.58208704       0.07682148       0.11563922      -0.00370316
H        3.98315094       4.05248297       3.08360637      -0.07682148      -0.11563922       0.00370316
H        5.50112851      -1.42326831       3.58208704      -0.13855726       0.00870987      -0.00370316
H       -5.50112876       1.42326834       3.08360637       0.13855726      -0.00870987       0.00370316
H       -1.51797771       5.47575107       3.58208704       0.06173579      -0.12434909      -0.00370316
H        1.51797781      -5.47575130       3.08360637      -0.06173579       0.12434909       0.00370316
H        2.24080861      -1.28741629       3.38162573       0.04775387       0.02167697       0.04211313
H       -2.24080882       1.28741593       3.28406769      -0.04775387      -0.02167697      -0.04211313
H       -0.00546906       2.58430528       3.38162573      -0.04264972       0.03051771       0.04211313
H        0.00546948      -2.58430528       3.28406769       0.04264972      -0.03051771      -0.04211313
H       -2.23533955      -1.29688899       3.38162573      -0.00510415      -0.05219468       0.04211313
H        2.23533934       1.29688935       3.28406769       0.00510415       0.05219468      -0.04211313
H        2.58158671      -2.76364593       2.93213883      -0.05343112      -0.02481037       0.01714026
H       -2.58158671       2.76364581       3.73355456       0.05343112       0.02481037      -0.01714026
H        1.10259429       3.61754258       2.93213883       0.04820201      -0.03386734       0.01714026
H       -1.10259419      -3.61754252       3.73355456      -0.04820201       0.03386734      -0.01714026
H       -3.68418099      -0.85389665       2.93213883       0.00522911       0.05867772       0.01714026
H        3.68418089       0.85389671       3.73355456      -0.00522911      -0.05867772      -0.01714026
36
Lattice="6.919805631741866 -3.99515154426524 2.2218978063541965 0.0 7.99030308853048 2.2218978063541965 -6.919805631741866 -3.99515154426524 2.2218978063541965" Properties=species:S:1:pos:R:3:forces:R:3 energy=-5687.669559761049 free_energy=-5687.669559761049 stress="0.013052528657675406 0.0 0.0 0.0 0.013052528657675406 0.0 0.0 0.0 0.009508440263005522" pbc="T T T"
O       -4.07140369      -4.22487357       2.61317452       0.00930302      -0.11201911      -0.14875426
O        4.07140390       4.22487378       4.05251885      -0.00930302       0.11201911       0.14875426
O        5.69454978      -1.41350215       2.61317452       0.09235994       0.06406623      -0.14875426
O       -5.69455006       1.41350223       4.05251885      -0.09235994      -0.06406623       0.14875426
O       -1.62314609       5.63837572       2.61317452      -0.10166296       0.04795287      -0.14875426