36
Lattice="6.906822942435679 -3.9876559852870503 2.2177291619694937 0.0 7.975311970574101 2.2177291619694937 -6.906822942435679 -3.9876559852870503 2.2177291619694937" Properties=species:S:1:pos:R:3:forces:R:3 energy=-5685.871116271331 free_energy=-5685.871116271331 stress="0.06543617507764972 0.0 -0.0 0.0 0.06543617507764972 0.0 -0.0 0.0 0.06442895617377592" pbc="T T T"
O       -4.04093847      -4.26621460       2.56781397      -0.53889500       1.94871288       1.10940427
O        4.04093847       4.26621543       4.08537517       0.53889500      -1.94871288      -1.10940427
O        5.71511956      -1.36644778       2.56781397      -1.41818734      -1.44105319       1.10940427
O       -5.71511956       1.36644778       4.08537517       1.41818734       1.44105319      -1.10940427
O       -1.67418109       5.63266238       2.56781397       1.95708233      -0.50765969       1.10940427
O        1.67418109      -5.63266238       4.08537517      -1.95708233       0.50765969      -1.10940427
O        1.00049337       2.77409642       3.42496523      -1.52685475       1.17186074      -0.92963557
O       -1.00049337      -2.77409642       3.22822309       1.52685475      -1.17186074       0.92963557
O       -2.90268479      -0.52059588       3.42496523      -0.25143383      -1.90822546      -0.92963557
O        2.90268479       0.52059588       3.22822309       0.25143383       1.90822546       0.92963557
O        1.90219142      -2.25350136       3.42496523       1.77828859       0.73636472      -0.92963557
O       -1.90219142       2.25350136       3.22822309      -1.77828859      -0.73636472       0.92963557
H       -4.49526464      -3.39617048       2.17055164       0.88919880      -1.60561819       0.88589648
H        4.49526464       3.39617048       4.48263667      -0.88919880       1.60561819      -0.88589648
H        5.18880281      -2.19492846       2.17055164       0.94590680       1.57287776       0.88589648
H       -5.18880281       2.19492846       4.48263667      -0.94590680      -1.57287776      -0.88589648
H       -0.69353735       5.59109895       2.17055164      -1.83510560       0.03274043       0.88589648
H        0.69353818      -5.59109895       4.48263667       1.83510560      -0.03274043      -0.88589648
H       -3.87550342      -4.02272374       3.58217368      -0.39343175      -0.35794204      -1.99481044
H        3.87550342       4.02272374       3.07101463       0.39343175       0.35794204       1.99481044
H        5.42153238      -1.34492270       3.58217368       0.50670273      -0.16175067      -1.99481044
H       -5.42153238       1.34492270       3.07101463      -0.50670273       0.16175067       1.99481044
H       -1.54602897       5.36764644       3.58217368      -0.11327124       0.51969297      -1.99481044
H        1.54602897      -5.36764644       3.07101463       0.11327124      -0.51969297       1.99481044
H        2.25065624      -1.25511473       3.40948138      -0.54980496      -1.98706679      -0.05284645
H       -2.25065624       1.25511390       3.24370776       0.54980496       1.98706679       0.05284645
H       -0.03836733       2.57668211       3.40948138       1.99575301       0.51738823      -0.05284645
H        0.03836733      -2.57668211       3.24370776      -1.99575301      -0.51738823       0.05284645
H       -2.21228891      -1.32156821       3.40948138      -1.44594779       1.46967856      -0.05284645
H        2.21228891       1.32156821       3.24370776       1.44594779      -1.46967856       0.05284645
H        2.59610956      -2.82795753       2.87517064      -1.29437638       1.25967831       1.08346544
H       -2.59610956       2.82795753       3.77801767       1.29437638      -1.25967831      -1.08346544
H        1.15102899       3.66227580       2.87517064      -0.44372535      -1.75080221       1.08346544
H       -1.15102816      -3.66227580       3.77801767       0.44372535       1.75080221      -1.08346544
H       -3.74713855      -0.83431827       2.87517064       1.73810173       0.49112364       1.08346544
H        3.74713772       0.83431827       3.77801767      -1.73810173      -0.49112364      -1.08346544
