24
Lattice="4.177855647482834 0.0 0.0 0.0 7.236543146262318 0.0 0.0 0.0 6.800383372376405" Properties=species:S:1:pos:R:3:forces:R:3 energy=-3789.054849866614 free_energy=-3789.054849866614 stress="-0.13171705516128293 -0.0 -0.0 -0.0 -0.13644923951002091 -0.0 -0.0 -0.0 -0.13174735436258453" pbc="T T T"
O        0.00000000       4.80664507       0.41106381       0.00000000       3.19151370      -2.33300667
O        0.00000000       2.42989808       3.81125550       0.00000000      -3.19152064      -2.33300615
O        2.08892782       1.18837349       0.41106381       0.00000000       3.19153709      -2.33302004
O        2.08892782       6.04817007       3.81125550       0.00000000      -3.19153735      -2.33301952
O        2.08892782       6.02163108       6.36946723       0.00000000       3.21561727      -2.23074721
O        2.08892782       1.21491207       2.96927512       0.00000000      -3.21559722      -2.23073333
O        0.00000000       2.40335951       6.36946681       0.00000000       3.21557717      -2.23071790
O        0.00000000       4.83318364       2.96927512       0.00000000      -3.21558436      -2.23072381
H        0.00000000       4.79489777       1.33659002       0.00000000       0.13488599       3.59940481
H        0.00000000       2.44164538       4.73678171       0.00000000      -0.13488881       3.59940430
H        2.08892782       1.17662620       1.33659002       0.00000000       0.13488676       3.59939787
H        2.08892782       6.05991737       4.73678171       0.00000000      -0.13488933       3.59939710
H        0.00000000       3.92282973       0.13380878       0.00000000      -3.33829798      -1.25706067
H        0.00000000       3.31371342       3.53400046       0.00000000       3.33829798      -1.25706273
H        2.08892782       0.30455816       0.13380878       0.00000000      -3.33828923      -1.25705836
H        2.08892782       6.93198541       3.53400046       0.00000000       3.33829181      -1.25706093
H        2.83149446       5.56417176       6.68034481       2.99766692      -1.64674581       1.11069908
H        1.34636119       1.67237138       3.28015312      -2.99767283       1.64674735       1.11070140
H        2.83149446       1.67237138       3.28015312       2.99767283       1.64674735       1.11070140
H        1.34636119       5.56417176       6.68034481      -2.99766692      -1.64674581       1.11069908
H        0.74256663       1.94590019       6.68034481       2.99767617      -1.64675172       1.11070371
H        3.43528902       5.29064338       3.28015312      -2.99767489       1.64674864       1.11070242
H        0.74256663       5.29064338       3.28015312       2.99767489       1.64674864       1.11070242
H        3.43528902       1.94590019       6.68034481      -2.99767617      -1.64675172       1.11070371
