24
Lattice="4.696999655965992 0.0 0.0 0.0 4.696999655965992 0.0 0.0 0.0 6.773998812835185" Properties=species:S:1:pos:R:3:forces:R:3 energy=-3791.5802982663854 free_energy=-3791.5802982663854 stress="-0.021505087663201555 -0.0 -0.0 -0.0 -0.021629038941253485 0.0 -0.0 0.0 -0.02015998675693436" pbc="T T T"
O        0.00000000       1.17424991       4.11619780      -0.00000000       0.00000026       0.03001506
O        0.00000000       3.52274974       2.65780195      -0.00000000      -0.00000026      -0.03001506
O        2.34849983       3.52274974       0.72919792       0.00000000       0.00000026       0.03001866
O        2.34849983       1.17424991       6.04480136       0.00000000      -0.00000026      -0.03001866
O        0.00000000       3.52274974       5.80968177       0.00000000      -0.00000026       0.03010530
O        0.00000000       1.17424991       0.96431798       0.00000000       0.00000026      -0.03010530
O        2.34849983       1.17424991       2.42268142       0.00000000      -0.00000051       0.03009399
O        2.34849983       3.52274974       4.35131786       0.00000000       0.00000051      -0.03009399
H        0.00000000       1.96143840       4.71550349       0.00000000       0.06052634       0.00608837
H        0.00000000       2.73556078       2.05849627       0.00000000      -0.06052634      -0.00608837
H        2.34849983       2.73556078       1.32850361       0.00000000      -0.06052763       0.00608991
H        2.34849983       1.96143840       5.44549567       0.00000000       0.06052763      -0.00608991
H        3.90980929       3.52274974       6.40900624      -0.06035125       0.00000000       0.00589554
H        0.78719037       1.17424991       0.36499304       0.06035125      -0.00000000      -0.00589554
H        3.13569020       1.17424991       3.02200637       0.06035253      -0.00000000       0.00589477
H        1.56130946       3.52274974       3.75199292      -0.06035253       0.00000000      -0.00589477
H        3.13569020       3.52274974       3.75199292       0.06035253       0.00000000      -0.00589477
H        1.56130946       1.17424991       3.02200637      -0.06035253      -0.00000000       0.00589477
H        3.90980929       1.17424991       0.36499304      -0.06035125      -0.00000000      -0.00589554
H        0.78719037       3.52274974       6.40900624       0.06035125       0.00000000       0.00589554
H        2.34849983       4.30993870       1.32850361       0.00000000       0.06052788       0.00608991
H        2.34849983       0.38706142       5.44549567       0.00000000      -0.06052788      -0.00608991
H        0.00000000       0.38706142       4.71550349       0.00000000      -0.06052634       0.00608837
H        0.00000000       4.30993870       2.05849627       0.00000000       0.06052634      -0.00608837
