24
Lattice="5.007001718986455 0.0 0.0 0.0 5.007001718986455 0.0 0.0 0.0 7.221082858117108" Properties=species:S:1:pos:R:3:forces:R:3 energy=-3791.137140063426 free_energy=-3791.137140063426 stress="0.059152304359224674 -0.0 -0.0 -0.0 0.05917984908768066 -0.0 -0.0 -0.0 0.06035141820467516" pbc="T T T"
O        0.00000000       1.25175043       4.39670128       0.00000000       0.00000489       1.67203467
O        0.00000000       3.75525129       2.82438258       0.00000000      -0.00000489      -1.67203467
O        2.50350086       3.75525129       0.78615935       0.00000000       0.00000154       1.67204341
O        2.50350086       1.25175043       6.43492400       0.00000000      -0.00000154      -1.67204341
O        0.00000000       3.75525129       6.20197225       0.00000000       0.00000051       1.68893376
O        0.00000000       1.25175043       1.01911161       0.00000000      -0.00000051      -1.68893376
O        2.50350086       1.25175043       2.59143032       0.00000000       0.00000026       1.68887308
O        2.50350086       3.75525129       4.62965304       0.00000000      -0.00000026      -1.68887308
H        0.00000000       2.07415046       5.02096374       0.00000000      -1.28536749      -0.85699625
H        0.00000000       2.93285126       2.20011962       0.00000000       1.28536749       0.85699625
H        2.50350086       2.93285126       1.41042231       0.00000000       1.28536672      -0.85699496
H        2.50350086       2.07415046       5.81066155       0.00000000      -1.28536672       0.85699496
H        4.18460169       3.75525129       6.82623471       1.28537160      -0.00000000      -0.85634859
H        0.82240003       1.25175043       0.39484865      -1.28537160       0.00000000       0.85634859
H        3.32590089       1.25175043       3.21569278      -1.28536775       0.00000000      -0.85634987
H        1.68110083       3.75525129       4.00539058       1.28536775      -0.00000000       0.85634987
H        3.32590089       3.75525129       4.00539058      -1.28536775      -0.00000000       0.85634987
H        1.68110083       1.25175043       3.21569278       1.28536775       0.00000000      -0.85634987
H        4.18460169       1.25175043       0.39484865       1.28537160       0.00000000       0.85634859
H        0.82240003       3.75525129       6.82623471      -1.28537160      -0.00000000      -0.85634859
H        2.50350086       4.57765132       1.41042231       0.00000000      -1.28536672      -0.85699522
H        2.50350086       0.42935040       5.81066155       0.00000000       1.28536672       0.85699522
H        0.00000000       0.42935040       5.02096374       0.00000000       1.28536800      -0.85699599
H        0.00000000       4.57765132       2.20011962       0.00000000      -1.28536800       0.85699599
24
Lattice="5.007001718986455 0.0 0.0 0.0 5.007001718986455 0.0 0.0 0.0 7.221082858117108" Properties=species:S:1:pos:R:3:forces:R:3 energy=-3791.6593889699325 free_energy=-3791.6593889699325 stress="0.006741113210794374 -0.0 -0.0 -0.0 0.006977997875515833 -0.0 -0.0 -0.0 -0.005524554370655101" pbc="T T T"
O        0.00000000       1.25175053       4.43111427      -0.00000000      -0.00000591      -0.70863974
O        0.00000000       3.75525119       2.78996879      -0.00000000       0.00000591       0.70863974
O        2.50350086       3.75525132       0.82057281       0.00000000      -0.00000206      -0.70864437
O        2.50350086       1.25175040       6.40050984       0.00000000       0.00000206       0.70864437
O        0.00000000       3.75525130       6.23673280       0.00000000       0.00000000      -0.70117017
O        0.00000000       1.25175042       0.98435027       0.00000000      -0.00000000       0.70117017
O        2.50350086       1.25175043       2.62618991       0.00000000      -0.00000000      -0.70112055
O        2.50350086       3.75525128       4.59489274       0.00000000       0.00000000       0.70112055
H        0.00000000       2.04769532       5.00332495       0.00000000       0.05648816       0.30600910
H        0.00000000       2.95930625       2.21775791       0.00000000      -0.05648816      -0.30600910
H        2.50350086       2.95930623       1.39278355       0.00000000      -0.05648637       0.30600858
H        2.50350086       2.04769533       5.82829931       0.00000000       0.05648637      -0.30600858
H        4.21105676       3.75525129       6.80860899      -0.06194687       0.00000000       0.31289040
H        0.79594481       1.25175043       0.41247386       0.06194687      -0.00000000      -0.31289040
H        3.29944589       1.25175043       3.19806754       0.06192425       0.00000000       0.31286675
H        1.70755598       3.75525129       4.02301532      -0.06192425      -0.00000000      -0.31286675
H        3.29944589       3.75525129       4.02301532       0.06192425      -0.00000000      -0.31286675
H        1.70755598       1.25175043       3.19806754      -0.06192425       0.00000000       0.31286675
H        4.21105676       1.25175043       0.41247386      -0.06194687      -0.00000000      -0.31289040
H        0.79594481       3.75525129       6.80860899       0.06194687       0.00000000       0.31289040
H        2.50350086       4.55119635       1.39278354       0.00000000       0.05648842       0.30600987
H        2.50350086       0.45580552       5.82829931       0.00000000      -0.05648842      -0.30600987
H        0.00000000       0.45580555       5.00332495       0.00000000      -0.05648251       0.30600498
H        0.00000000       4.55119632       2.21775790       0.00000000       0.05648251      -0.30600498
24
Lattice="5.007001718986455 0.0 0.0 0.0 5.007001718986455 0.0 0.0 0.0 7.221082858117108" Properties=species:S:1:pos:R:3:forces:R:3 energy=-3791.7067190904586 free_energy=-3791.7067190904586 stress="0.016388195273695012 -0.0 -0.0 -0.0 0.016515819182207736 0.0 -0.0 0.0 0.009134750113619345" pbc="T T T"
O        0.00000000       1.25175043       4.42009736      -0.00000000       0.00000386      -0.11001133
O        0.00000000       3.75525129       2.80098571      -0.00000000      -0.00000386       0.11001133
O        2.50350086       3.75525129       0.80955583       0.00000000       0.00000129      -0.11001159
O        2.50350086       1.25175043       6.41152682       0.00000000      -0.00000129       0.11001159
O        0.00000000       3.75525130       6.22584627       0.00000000      -0.00000000      -0.10282099
O        0.00000000       1.25175042       0.99523679       0.00000000       0.00000000       0.10282099
O        2.50350086       1.25175043       2.61530418       0.00000000      -0.00000000      -0.10282690
O        2.50350086       3.75525129       4.60577847       0.00000000       0.00000000       0.10282690
H        0.00000000       2.04809759       5.00802659       0.00000000      -0.18727041       0.01472702
H        0.00000000       2.95890398       2.21305627       0.00000000       0.18727041      -0.01472702
H        2.50350086       2.95890399       1.39748517       0.00000000       0.18726861       0.01472882
H        2.50350086       2.04809758       5.82359769       0.00000000      -0.18726861      -0.01472882
H        4.21056430       3.75525129       6.81342458       0.18497287       0.00000000       0.02016362
H        0.79643726       1.25175043       0.40765827      -0.18497287      -0.00000000      -0.02016362
H        3.29993798       1.25175043       3.20288274      -0.18496362      -0.00000000       0.02016748
H        1.70706389       3.75525129       4.01820012       0.18496362       0.00000000      -0.02016748
H        3.29993798       3.75525129       4.01820012      -0.18496362       0.00000000      -0.02016748
H        1.70706389       1.25175043       3.20288274       0.18496362      -0.00000000       0.02016748
H        4.21056430       1.25175043       0.40765827       0.18497287      -0.00000000      -0.02016362
H        0.79643726       3.75525129       6.81342458      -0.18497287       0.00000000       0.02016362
H        2.50350086       4.55159862       1.39748519       0.00000000      -0.18726990       0.01472779
H        2.50350086       0.45540325       5.82359767       0.00000000       0.18726990      -0.01472779
H        0.00000000       0.45540337       5.00802652       0.00000000       0.18726656       0.01472985
H        0.00000000       4.55159850       2.21305634       0.00000000      -0.18726656      -0.01472985
24
Lattice="5.007001718986455 0.0 0.0 0.0 5.007001718986455 0.0 0.0 0.0 7.221082858117108" Properties=species:S:1:pos:R:3:forces:R:3 energy=-3791.7203491365804 free_energy=-3791.7203491365804 stress="0.014146972534993151 -0.0 -0.0 -0.0 0.014225015932285106 -0.0 -0.0 -0.0 0.01028428344784906" pbc="T T T"
O        0.00000000       1.25175050       4.41549672       0.00000000      -0.00000283      -0.02555111
O        0.00000000       3.75525122       2.80558635       0.00000000       0.00000283       0.02555111
O        2.50350086       3.75525131       0.80495516       0.00000000      -0.00000103      -0.02555085
O        2.50350086       1.25175041       6.41612748       0.00000000       0.00000103       0.02555085
O        0.00000000       3.75525130       6.22144771       0.00000000      -0.00000000      -0.01905110
O        0.00000000       1.25175042       0.99963536       0.00000000       0.00000000       0.01905110
O        2.50350086       1.25175043       2.61090564       0.00000000      -0.00000000      -0.01905496
O        2.50350086       3.75525129       4.61017701       0.00000000       0.00000000       0.01905496
H        0.00000000       2.04345942       5.00920033       0.00000000      -0.12278663      -0.02473941
H        0.00000000       2.96354214       2.21188253       0.00000000       0.12278663       0.02473941
H        2.50350086       2.96354212       1.39865896       0.00000000       0.12278920      -0.02474121
H        2.50350086       2.04345944       5.82242390       0.00000000      -0.12278920       0.02474121
H        4.21512820       3.75525129       6.81475089       0.12209295       0.00000000      -0.01966354
H        0.79187337       1.25175043       0.40633197      -0.12209295      -0.00000000       0.01966354
H        3.29537420       1.25175043       3.20420904      -0.12208755       0.00000000      -0.01966123
H        1.71162766       3.75525129       4.01687382       0.12208755      -0.00000000       0.01966123
H        3.29537420       3.75525129       4.01687382      -0.12208755      -0.00000000       0.01966123
H        1.71162766       1.25175043       3.20420904       0.12208755       0.00000000      -0.01966123
H        4.21512820       1.25175043       0.40633197       0.12209295      -0.00000000       0.01966354
H        0.79187337       3.75525129       6.81475089      -0.12209295       0.00000000      -0.01966354
H        2.50350086       4.54696046       1.39865896       0.00000000      -0.12278843      -0.02474044
H        2.50350086       0.46004140       5.82242390       0.00000000       0.12278843       0.02474044
H        0.00000000       0.46004147       5.00920032       0.00000000       0.12278920      -0.02474121
H        0.00000000       4.54696040       2.21188254       0.00000000      -0.12278920       0.02474121
24
Lattice="5.007001718986455 0.0 0.0 0.0 5.007001718986455 0.0 0.0 0.0 7.221082858117108" Properties=species:S:1:pos:R:3:forces:R:3 energy=-3791.7265560532396 free_energy=-3791.7265560532396 stress="0.0107158175269928 -0.0 -0.0 -0.0 0.01076815251105917 0.0 -0.0 0.0 0.009838977004477324" pbc="T T T"
O        0.00000000       1.25175037       4.41147337       0.00000000       0.00000951      -0.01090945
O        0.00000000       3.75525135       2.80960970       0.00000000      -0.00000951       0.01090945
O        2.50350086       3.75525127       0.80093182      -0.00000000       0.00000309      -0.01090996
O        2.50350086       1.25175045       6.42015083      -0.00000000      -0.00000309       0.01090996
O        0.00000000       3.75525130       6.21772813       0.00000000      -0.00000026      -0.00638559
O        0.00000000       1.25175042       1.00335494       0.00000000       0.00000026       0.00638559
O        2.50350086       1.25175043       2.60718612      -0.00000000      -0.00000000      -0.00638945
O        2.50350086       3.75525129       4.61389653      -0.00000000       0.00000000       0.00638945
H        0.00000000       2.03820348       5.00946690       0.00000000      -0.01771413      -0.02842740
H        0.00000000       2.96879809       2.21161596       0.00000000       0.01771413       0.02842740
H        2.50350086       2.96879817       1.39892547       0.00000000       0.01770796      -0.02842277
H        2.50350086       2.03820339       5.82215739       0.00000000      -0.01770796       0.02842277
H        4.22032620       3.75525129       6.81525436       0.01774987      -0.00000000      -0.02317027
H        0.78667537       1.25175043       0.40582850      -0.01774987       0.00000000       0.02317027
H        3.29017632       1.25175044       3.20471249      -0.01774678      -0.00000000      -0.02316795
H        1.71682555       3.75525128       4.01637036       0.01774678       0.00000000       0.02316795
H        3.29017632       3.75525128       4.01637036      -0.01774678       0.00000000       0.02316795
H        1.71682555       1.25175044       3.20471249       0.01774678      -0.00000000      -0.02316795
H        4.22032620       1.25175043       0.40582850       0.01774987       0.00000000       0.02317027
H        0.78667537       3.75525129       6.81525436      -0.01774987      -0.00000000      -0.02317027
H        2.50350086       4.54170446       1.39892550       0.00000000      -0.01771104      -0.02842509
H        2.50350086       0.46529741       5.82215736       0.00000000       0.01771104       0.02842509
H        0.00000000       0.46529754       5.00946680       0.00000000       0.01770487      -0.02842072
H        0.00000000       4.54170433       2.21161606       0.00000000      -0.01770487       0.02842072
24
Lattice="5.007001718986455 0.0 0.0 0.0 5.007001718986455 0.0 0.0 0.0 7.221082858117108" Properties=species:S:1:pos:R:3:forces:R:3 energy=-3791.7269187809866 free_energy=-3791.7269187809866 stress="0.009941810657379663 -0.0 -0.0 -0.0 0.009993227483830832 -0.0 -0.0 -0.0 0.009474468431243143" pbc="T T T"
O        0.00000000       1.25175059       4.41049891      -0.00000000      -0.00001208      -0.01953396
O        0.00000000       3.75525113       2.81058416      -0.00000000       0.00001208       0.01953396
O        2.50350086       3.75525134       0.79995734       0.00000000      -0.00000411      -0.01953370
O        2.50350086       1.25175038       6.42112530       0.00000000       0.00000411       0.01953370
O        0.00000000       3.75525129       6.21689418      -0.00000000       0.00000000      -0.01460721
O        0.00000000       1.25175043       1.00418889      -0.00000000      -0.00000000       0.01460721
O        2.50350086       1.25175043       2.60635212       0.00000000      -0.00000000      -0.01460515
O        2.50350086       3.75525129       4.61473053       0.00000000       0.00000000       0.01460515
H        0.00000000       2.03728923       5.00895606       0.00000000       0.00465061      -0.02379813
H        0.00000000       2.96971234       2.21212680       0.00000000      -0.00465061       0.02379813
H        2.50350086       2.96971229       1.39841473       0.00000000      -0.00464264      -0.02380404
H        2.50350086       2.03728928       5.82266813       0.00000000       0.00464264       0.02380404
H        4.22123279       3.75525129       6.81489500      -0.00416982       0.00000000      -0.01897166
H        0.78576878       1.25175043       0.40618786       0.00416982      -0.00000000       0.01897166
H        3.28926980       1.25175043       3.20435317       0.00416904       0.00000000      -0.01897217
H        1.71773206       3.75525128       4.01672968      -0.00416904      -0.00000000       0.01897217
H        3.28926980       3.75525128       4.01672968       0.00416904      -0.00000000       0.01897217
H        1.71773206       1.25175043       3.20435317      -0.00416904       0.00000000      -0.01897217
H        4.22123279       1.25175043       0.40618786      -0.00416982      -0.00000000       0.01897166
H        0.78576878       3.75525129       6.81489500       0.00416982       0.00000000      -0.01897166
H        2.50350086       4.54079027       1.39841471       0.00000000       0.00464650      -0.02380122
H        2.50350086       0.46621160       5.82266815       0.00000000      -0.00464650       0.02380122
H        0.00000000       0.46621158       5.00895612       0.00000000      -0.00463904      -0.02380662
H        0.00000000       4.54079029       2.21212674       0.00000000       0.00463904       0.02380662
