24
Lattice="4.358815731537452 0.0 0.0 0.0 4.358815731537452 0.0 0.0 0.0 6.286270971576118" Properties=species:S:1:pos:R:3:forces:R:3 energy=-3786.298571787389 free_energy=-3786.298571787389 stress="-0.32046822506352546 -0.0 -0.0 -0.0 -0.3206013579177293 0.0 -0.0 0.0 -0.3330387209732211" pbc="T T T"
O        0.00000000       1.08970393       3.82752230      -0.00000000       0.00000103      -5.77882329
O        0.00000000       3.26911180       2.45874955      -0.00000000      -0.00000103       5.77882329
O        2.17940787       3.26911180       0.68438638      -0.00000000      -0.00000051      -5.77876596
O        2.17940787       1.08970393       5.60188503      -0.00000000       0.00000051       5.77876596
O        0.00000000       3.26911180       5.39909026      -0.00000000      -0.00000026      -5.77942210
O        0.00000000       1.08970393       0.88718159      -0.00000000       0.00000026       5.77942210
O        2.17940787       1.08970393       2.25595434       0.00000000       0.00000026      -5.77942082
O        2.17940787       3.26911180       4.03031707       0.00000000      -0.00000026       5.77942082
H        0.00000000       1.80563942       4.37097029       0.00000000       4.38762920       2.95207920
H        0.00000000       2.55317631       1.91530112       0.00000000      -4.38762920      -2.95207920
H        2.17940787       2.55317631       1.22783480       0.00000000      -4.38764308       2.95209977
H        2.17940787       1.80563942       5.05843704       0.00000000       4.38764308      -2.95209977
H        3.64288025       3.26911180       5.94253825      -4.38722219       0.00000000       2.95223938
H        0.71593548       1.08970393       0.34373316       4.38722219      -0.00000000      -2.95223938
H        2.89534335       1.08970393       2.79940233       4.38722013       0.00000000       2.95223707
H        1.46347238       3.26911180       3.48686908      -4.38722013      -0.00000000      -2.95223707
H        2.89534335       3.26911180       3.48686908       4.38722013      -0.00000000      -2.95223707
H        1.46347238       1.08970393       2.79940233      -4.38722013       0.00000000       2.95223707
H        3.64288025       1.08970393       0.34373316      -4.38722219      -0.00000000      -2.95223938
H        0.71593548       3.26911180       5.94253825       4.38722219       0.00000000       2.95223938
H        2.17940787       3.98504728       1.22783480       0.00000000       4.38764308       2.95209977
H        2.17940787       0.37376845       5.05843704       0.00000000      -4.38764308      -2.95209977
H        0.00000000       0.37376845       4.37097029       0.00000000      -4.38762945       2.95207920
H        0.00000000       3.98504728       1.91530112       0.00000000       4.38762945      -2.95207920
24
Lattice="4.358815731537452 0.0 0.0 0.0 4.358815731537452 0.0 0.0 0.0 6.286270971576118" Properties=species:S:1:pos:R:3:forces:R:3 energy=-3787.4363796125863 free_energy=-3787.4363796125863 stress="-0.04557367138803999 -0.0 -0.0 -0.0 -0.045597543486035175 -0.0 -0.0 -0.0 0.045190799662501814" pbc="T T T"
O        0.00000000       1.08970395       3.70858389       0.00000000      -0.00000077       4.23003497
O        0.00000000       3.26911178       2.57768727       0.00000000       0.00000077      -4.23003497
O        2.17940787       3.26911179       0.56544940       0.00000000       0.00000051       4.23001337
O        2.17940787       1.08970395       5.72082139       0.00000000      -0.00000051      -4.23001337
O        0.00000000       3.26911179       5.28013930       0.00000000       0.00000026       4.22920965
O        0.00000000       1.08970394       1.00613185       0.00000000      -0.00000026      -4.22920965
O        2.17940787       1.08970394       2.13700367       0.00000000      -0.00000026       4.22920656
O        2.17940787       3.26911179       4.14926712       0.00000000       0.00000026      -4.22920656
H        0.00000000       1.89594431       4.43172885       0.00000000      -0.95331543      -1.67260288
H        0.00000000       2.46287130       1.85454212       0.00000000       0.95331543       1.67260288
H        2.17940787       2.46287101       1.28859379       0.00000000       0.95331569      -1.67259645
H        2.17940787       1.89594459       4.99767718       0.00000000      -0.95331569       1.67259645
H        3.55258360       3.26911180       6.00329989       0.95334551      -0.00000000      -1.67258437
H        0.80623200       1.08970393       0.28297108      -0.95334551       0.00000000       1.67258437
H        2.98563995       1.08970393       2.86016436      -0.95334371       0.00000000      -1.67258360
H        1.37317591       3.26911180       3.42610662       0.95334371      -0.00000000       1.67258360
H        2.98563995       3.26911180       3.42610662      -0.95334371      -0.00000000       1.67258360
H        1.37317591       1.08970393       2.86016436       0.95334371       0.00000000      -1.67258360
H        3.55258360       1.08970393       0.28297108       0.95334551       0.00000000       1.67258437
H        0.80623200       3.26911180       6.00329989      -0.95334551      -0.00000000      -1.67258437
H        2.17940787       4.07535259       1.28859379       0.00000000      -0.95331594      -1.67259645
H        2.17940787       0.28346328       4.99767718       0.00000000       0.95331594       1.67259645
H        0.00000000       0.28346356       4.43172885       0.00000000       0.95331594      -1.67260339
H        0.00000000       4.07535230       1.85454212       0.00000000      -0.95331594       1.67260339
24
Lattice="4.358815731537452 0.0 0.0 0.0 4.358815731537452 0.0 0.0 0.0 6.286270971576118" Properties=species:S:1:pos:R:3:forces:R:3 energy=-3789.399785994429 free_energy=-3789.399785994429 stress="-0.08348715379247094 -0.0 -0.0 -0.0 -0.0835606064016869 -0.0 -0.0 -0.0 -0.052162370434711246" pbc="T T T"
O        0.00000000       1.08970394       3.76450407      -0.00000000      -0.00000051       1.92196492
O        0.00000000       3.26911179       2.52176709      -0.00000000       0.00000051      -1.92196492
O        2.17940787       3.26911179       0.62136931       0.00000000       0.00000026       1.92195412
O        2.17940787       1.08970394       5.66490148       0.00000000      -0.00000026      -1.92195412
O        0.00000000       3.26911179       5.33604768       0.00000000       0.00000000       1.92186285
O        0.00000000       1.08970394       0.95022348       0.00000000      -0.00000000      -1.92186285
O        2.17940787       1.08970394       2.19291200       0.00000000      -0.00000000       1.92186130
O        2.17940787       3.26911179       4.09335879       0.00000000       0.00000000      -1.92186130
H        0.00000000       1.88493859       4.40996266       0.00000000      -0.44859142      -0.69262485
H        0.00000000       2.47387701       1.87630831       0.00000000       0.44859142       0.69262485
H        2.17940787       2.47387672       1.26682770       0.00000000       0.44859400      -0.69262305
H        2.17940787       1.88493888       5.01944327       0.00000000      -0.44859400       0.69262305
H        3.56358995       3.26911180       5.98153404       0.44881382      -0.00000000      -0.69252278
H        0.79522565       1.08970393       0.30473693      -0.44881382       0.00000000       0.69252278
H        2.97463363       1.08970393       2.83839852      -0.44881254       0.00000000      -0.69252252
H        1.38418223       3.26911180       3.44787246       0.44881254      -0.00000000       0.69252252
H        2.97463363       3.26911180       3.44787246      -0.44881254      -0.00000000       0.69252252
H        1.38418223       1.08970393       2.83839852       0.44881254       0.00000000      -0.69252252
H        3.56358995       1.08970393       0.30473693       0.44881382       0.00000000       0.69252278
H        0.79522565       3.26911180       5.98153404      -0.44881382      -0.00000000      -0.69252278
H        2.17940787       4.06434687       1.26682770       0.00000000      -0.44859425      -0.69262305
H        2.17940787       0.29446899       5.01944327       0.00000000       0.44859425       0.69262305
H        0.00000000       0.29446928       4.40996266       0.00000000       0.44859168      -0.69262511
H        0.00000000       4.06434658       1.87630831       0.00000000      -0.44859168       0.69262511
24
Lattice="4.358815731537452 0.0 0.0 0.0 4.358815731537452 0.0 0.0 0.0 6.286270971576118" Properties=species:S:1:pos:R:3:forces:R:3 energy=-3789.716933040699 free_energy=-3789.716933040699 stress="-0.13736647896760515 -0.0 -0.0 -0.0 -0.1374739034085835 0.0 -0.0 0.0 -0.1413439377566492" pbc="T T T"
O        0.00000000       1.08970393       3.81091325       0.00000000       0.00000051      -0.55939826
O        0.00000000       3.26911180       2.47535791       0.00000000      -0.00000051       0.55939826
O        2.17940787       3.26911180       0.66777822      -0.00000000      -0.00000026      -0.55939697
O        2.17940787       1.08970394       5.61849257      -0.00000000       0.00000026       0.55939697
O        0.00000000       3.26911180       5.38245724       0.00000000       0.00000000      -0.55921648
O        0.00000000       1.08970394       0.90381391       0.00000000      -0.00000000       0.55921648
O        2.17940787       1.08970394       2.23932153       0.00000000      -0.00000000      -0.55921468
O        2.17940787       3.26911180       4.04694926       0.00000000       0.00000000       0.55921468
H        0.00000000       1.87516583       4.39438876       0.00000000       0.46936568       0.41929473
H        0.00000000       2.48364978       1.89188221       0.00000000      -0.46936568      -0.41929473
H        2.17940787       2.48364957       1.25125385       0.00000000      -0.46936054       0.41929139
H        2.17940787       1.87516603       5.03501712       0.00000000       0.46936054      -0.41929139
H        3.57337099       3.26911180       5.96596391      -0.46914945      -0.00000000       0.41954027
H        0.78544461       1.08970393       0.32030706       0.46914945       0.00000000      -0.41954027
H        2.96485263       1.08970393       2.82282839       0.46914868      -0.00000000       0.41953924
H        1.39396323       3.26911180       3.46344258      -0.46914868       0.00000000      -0.41953924
H        2.96485263       3.26911180       3.46344258       0.46914868       0.00000000      -0.41953924
H        1.39396323       1.08970393       2.82282839      -0.46914868      -0.00000000       0.41953924
H        3.57337099       1.08970393       0.32030706      -0.46914945       0.00000000      -0.41954027
H        0.78544461       3.26911180       5.96596391       0.46914945      -0.00000000       0.41954027
H        2.17940787       4.05457402       1.25125384       0.00000000       0.46936080       0.41929165
H        2.17940787       0.30424184       5.03501713       0.00000000      -0.46936080      -0.41929165
H        0.00000000       0.30424205       4.39438876       0.00000000      -0.46936619       0.41929499
H        0.00000000       4.05457381       1.89188222       0.00000000       0.46936619      -0.41929499
24
Lattice="4.358815731537452 0.0 0.0 0.0 4.358815731537452 0.0 0.0 0.0 6.286270971576118" Properties=species:S:1:pos:R:3:forces:R:3 energy=-3789.782804317907 free_energy=-3789.782804317907 stress="-0.11504882181495209 -0.0 -0.0 -0.0 -0.11514063757647205 -0.0 -0.0 -0.0 -0.11346316361350264" pbc="T T T"
O        0.00000000       1.08970394       3.80218084       0.00000000      -0.00000026       0.19187217
O        0.00000000       3.26911179       2.48409031       0.00000000       0.00000026      -0.19187217
O        2.17940787       3.26911179       0.65904584       0.00000000       0.00000000       0.19186780
O        2.17940787       1.08970394       5.62722495       0.00000000      -0.00000000      -0.19186780
O        0.00000000       3.26911180       5.37372653       0.00000000       0.00000000       0.19167446
O        0.00000000       1.08970394       0.91254463       0.00000000      -0.00000000      -0.19167446
O        2.17940787       1.08970394       2.23059084       0.00000000      -0.00000000       0.19167394
O        2.17940787       3.26911180       4.05567995       0.00000000       0.00000000      -0.19167394
H        0.00000000       1.88223342       4.40048294       0.00000000       0.06982165       0.07010370
H        0.00000000       2.47658218       1.88578803       0.00000000      -0.06982165      -0.07010370
H        2.17940787       2.47658204       1.25734798       0.00000000      -0.06981985       0.07010318
H        2.17940787       1.88223356       5.02892299       0.00000000       0.06981985      -0.07010318
H        3.56630574       3.26911180       5.97206131      -0.06979388      -0.00000000       0.07036647
H        0.79250986       1.08970393       0.31420966       0.06979388       0.00000000      -0.07036647
H        2.97191787       1.08970393       2.82892578       0.06979440       0.00000000       0.07036647
H        1.38689799       3.26911180       3.45734519      -0.06979440      -0.00000000      -0.07036647
H        2.97191787       3.26911180       3.45734519       0.06979440      -0.00000000      -0.07036647
H        1.38689799       1.08970393       2.82892578      -0.06979440       0.00000000       0.07036647
H        3.56630574       1.08970393       0.31420966      -0.06979388       0.00000000      -0.07036647
H        0.79250986       3.26911180       5.97206131       0.06979388      -0.00000000       0.07036647
H        2.17940787       4.06164156       1.25734798       0.00000000       0.06981985       0.07010318
H        2.17940787       0.29717431       5.02892299       0.00000000      -0.06981985      -0.07010318
H        0.00000000       0.29717444       4.40048293       0.00000000      -0.06982139       0.07010370
H        0.00000000       4.06164142       1.88578804       0.00000000       0.06982139      -0.07010370
24
Lattice="4.358815731537452 0.0 0.0 0.0 4.358815731537452 0.0 0.0 0.0 6.286270971576118" Properties=species:S:1:pos:R:3:forces:R:3 energy=-3789.792584769553 free_energy=-3789.792584769553 stress="-0.1128599340603166 -0.0 -0.0 -0.0 -0.11296184955560375 0.0 -0.0 0.0 -0.11289574220730939" pbc="T T T"
O        0.00000000       1.08970393       3.80619902       0.00000000       0.00000026       0.15536842
O        0.00000000       3.26911180       2.48007213       0.00000000      -0.00000026      -0.15536842
O        2.17940787       3.26911180       0.66306393       0.00000000      -0.00000000       0.15536585
O        2.17940787       1.08970394       5.62320686       0.00000000       0.00000000      -0.15536585
O        0.00000000       3.26911180       5.37774079       0.00000000       0.00000000       0.15567181
O        0.00000000       1.08970393       0.90853037       0.00000000      -0.00000000      -0.15567181
O        2.17940787       1.08970394       2.23460509       0.00000000      -0.00000000       0.15567207
O        2.17940787       3.26911180       4.05166570       0.00000000       0.00000000      -0.15567207
H        0.00000000       1.88454533       4.40239636       0.00000000       0.03295846       0.07849295
H        0.00000000       2.47427027       1.88387461       0.00000000      -0.03295846      -0.07849295
H        2.17940787       2.47427018       1.25926139       0.00000000      -0.03295691       0.07849167
H        2.17940787       1.88454543       5.02700958       0.00000000       0.03295691      -0.07849167
H        3.56399500       3.26911180       5.97398074      -0.03291115      -0.00000000       0.07860479
H        0.79482061       1.08970393       0.31229023       0.03291115       0.00000000      -0.07860479
H        2.97422862       1.08970393       2.83084520       0.03291115      -0.00000000       0.07860454
H        1.38458724       3.26911180       3.45542577      -0.03291115       0.00000000      -0.07860454
H        2.97422862       3.26911180       3.45542577       0.03291115       0.00000000      -0.07860454
H        1.38458724       1.08970393       2.83084520      -0.03291115      -0.00000000       0.07860454
H        3.56399500       1.08970393       0.31229023      -0.03291115       0.00000000      -0.07860479
H        0.79482061       3.26911180       5.97398074       0.03291115      -0.00000000       0.07860479
H        2.17940787       4.06395342       1.25926138       0.00000000       0.03295717       0.07849167
H        2.17940787       0.29486245       5.02700959       0.00000000      -0.03295717      -0.07849167
H        0.00000000       0.29486254       4.40239636       0.00000000      -0.03295846       0.07849295
H        0.00000000       4.06395332       1.88387462       0.00000000       0.03295846      -0.07849295
24
Lattice="4.358815731537452 0.0 0.0 0.0 4.358815731537452 0.0 0.0 0.0 6.286270971576118" Properties=species:S:1:pos:R:3:forces:R:3 energy=-3789.801453095611 free_energy=-3789.801453095611 stress="-0.11108788986298167 -0.0 -0.0 -0.0 -0.111186132727808 -0.0 -0.0 -0.0 -0.11246145365532004" pbc="T T T"
O        0.00000000       1.08970394       3.81061230       0.00000000      -0.00000026       0.11881145
O        0.00000000       3.26911179       2.47565885       0.00000000       0.00000026      -0.11881145
O        2.17940787       3.26911180       0.66747714       0.00000000       0.00000000       0.11880913
O        2.17940787       1.08970394       5.61879365       0.00000000      -0.00000000      -0.11880913
O        0.00000000       3.26911180       5.38216078       0.00000000       0.00000000       0.11911150
O        0.00000000       1.08970393       0.90411037       0.00000000      -0.00000000      -0.11911150
O        2.17940787       1.08970393       2.23902510       0.00000000      -0.00000000       0.11911150
O        2.17940787       3.26911180       4.04724569       0.00000000       0.00000000      -0.11911150
H        0.00000000       1.88651338       4.40504523       0.00000000       0.00216538       0.08436124
H        0.00000000       2.47230222       1.88122575       0.00000000      -0.00216538      -0.08436124
H        2.17940787       2.47230218       1.26191022       0.00000000      -0.00216487       0.08435995
H        2.17940787       1.88651342       5.02436076       0.00000000       0.00216487      -0.08435995
H        3.56202880       3.26911180       5.97663386      -0.00229420      -0.00000000       0.08453787
H        0.79678680       1.08970393       0.30963712       0.00229420       0.00000000      -0.08453787
H        2.97619482       1.08970393       2.83349832       0.00229420      -0.00000000       0.08453787
H        1.38262105       3.26911180       3.45277266      -0.00229420       0.00000000      -0.08453787
H        2.97619482       3.26911180       3.45277266       0.00229420       0.00000000      -0.08453787
H        1.38262105       1.08970393       2.83349832      -0.00229420      -0.00000000       0.08453787
H        3.56202880       1.08970393       0.30963712      -0.00229420       0.00000000      -0.08453787
H        0.79678680       3.26911180       5.97663386       0.00229420      -0.00000000       0.08453787
H        2.17940787       4.06592141       1.26191021       0.00000000       0.00216487       0.08435995
H        2.17940787       0.29289445       5.02436076       0.00000000      -0.00216487      -0.08435995
H        0.00000000       0.29289449       4.40504522       0.00000000      -0.00216513       0.08436124
H        0.00000000       4.06592137       1.88122575       0.00000000       0.00216513      -0.08436124
24
Lattice="4.358815731537452 0.0 0.0 0.0 4.358815731537452 0.0 0.0 0.0 6.286270971576118" Properties=species:S:1:pos:R:3:forces:R:3 energy=-3789.8124824137194 free_energy=-3789.8124824137194 stress="-0.10875301504752945 -0.0 -0.0 -0.0 -0.10886962106465979 0.0 -0.0 0.0 -0.11156441366527019" pbc="T T T"
O        0.00000000       1.08970393       3.81723243      -0.00000000       0.00000051       0.07206262
O        0.00000000       3.26911180       2.46903872      -0.00000000      -0.00000051      -0.07206262
O        2.17940787       3.26911180       0.67409713       0.00000000      -0.00000026       0.07206211
O        2.17940787       1.08970393       5.61217366       0.00000000       0.00000026      -0.07206211
O        0.00000000       3.26911180       5.38879079       0.00000000      -0.00000000       0.07246346
O        0.00000000       1.08970393       0.89748037       0.00000000       0.00000000      -0.07246346
O        2.17940787       1.08970393       2.24565510      -0.00000000       0.00000000       0.07246346
O        2.17940787       3.26911180       4.04061569      -0.00000000      -0.00000000      -0.07246346
H        0.00000000       1.88879442       4.40974692       0.00000000      -0.03369405       0.08818575
H        0.00000000       2.47002118       1.87652406       0.00000000       0.03369405      -0.08818575
H        2.17940787       2.47002120       1.26661185       0.00000000       0.03369379       0.08818421
H        2.17940787       1.88879440       5.01965912       0.00000000      -0.03369379      -0.08818421
H        3.55974484       3.26911180       5.98134558       0.03354775       0.00000000       0.08829245
H        0.79907076       1.08970393       0.30492539      -0.03354775      -0.00000000      -0.08829245
H        2.97847878       1.08970393       2.83821004      -0.03354801      -0.00000000       0.08829245
H        1.38033708       3.26911180       3.44806093       0.03354801       0.00000000      -0.08829245
H        2.97847878       3.26911180       3.44806093      -0.03354801       0.00000000      -0.08829245
H        1.38033708       1.08970393       2.83821004       0.03354801      -0.00000000       0.08829245
H        3.55974484       1.08970393       0.30492539       0.03354775      -0.00000000      -0.08829245
H        0.79907076       3.26911180       5.98134558      -0.03354775       0.00000000       0.08829245
H        2.17940787       4.06820239       1.26661185       0.00000000      -0.03369379       0.08818421
H        2.17940787       0.29061347       5.01965913       0.00000000       0.03369379      -0.08818421
H        0.00000000       0.29061346       4.40974691       0.00000000       0.03369354       0.08818601
H        0.00000000       4.06820241       1.87652406       0.00000000      -0.03369354      -0.08818601
24
Lattice="4.358815731537452 0.0 0.0 0.0 4.358815731537452 0.0 0.0 0.0 6.286270971576118" Properties=species:S:1:pos:R:3:forces:R:3 energy=-3789.82521951828 free_energy=-3789.82521951828 stress="-0.10596181589732313 -0.0 -0.0 -0.0 -0.10608484901775984 -0.0 -0.0 -0.0 -0.11016697777493661" pbc="T T T"
O        0.00000000       1.08970394       3.82715856       0.00000000      -0.00000051       0.01480853
O        0.00000000       3.26911179       2.45911259       0.00000000       0.00000051      -0.01480853
O        2.17940787       3.26911180       0.68402309       0.00000000       0.00000026       0.01480878
O        2.17940787       1.08970394       5.60224770       0.00000000      -0.00000026      -0.01480878
O        0.00000000       3.26911180       5.39873579       0.00000000       0.00000000       0.01558346
O        0.00000000       1.08970393       0.88753536       0.00000000      -0.00000000      -0.01558346
O        2.17940787       1.08970393       2.25560010       0.00000000      -0.00000000       0.01558371
O        2.17940787       3.26911180       4.03067069       0.00000000       0.00000000      -0.01558371
H        0.00000000       1.89126507       4.41783014       0.00000000      -0.07238375       0.08683515
H        0.00000000       2.46755053       1.86844083       0.00000000       0.07238375      -0.08683515
H        2.17940787       2.46755062       1.27469496       0.00000000       0.07238247       0.08683361
H        2.17940787       1.89126498       5.01157601       0.00000000      -0.07238247      -0.08683361
H        3.55726859       3.26911180       5.98944379       0.07231048       0.00000000       0.08678065
H        0.80154701       1.08970393       0.29682718      -0.07231048      -0.00000000      -0.08678065
H        2.98095503       1.08970393       2.84630825      -0.07231073      -0.00000000       0.08678090
H        1.37786083       3.26911180       3.43996272       0.07231073       0.00000000      -0.08678090
H        2.98095503       3.26911180       3.43996272      -0.07231073       0.00000000      -0.08678090
H        1.37786083       1.08970393       2.84630825       0.07231073      -0.00000000       0.08678090
H        3.55726859       1.08970393       0.29682718       0.07231048      -0.00000000      -0.08678065
H        0.80154701       3.26911180       5.98944379      -0.07231048       0.00000000       0.08678065
H        2.17940787       4.07067297       1.27469496       0.00000000      -0.07238272       0.08683361
H        2.17940787       0.28814289       5.01157601       0.00000000       0.07238272      -0.08683361
H        0.00000000       0.28814279       4.41783014       0.00000000       0.07238427       0.08683464
H        0.00000000       4.07067307       1.86844083       0.00000000      -0.07238427      -0.08683464
24
Lattice="4.358815731537452 0.0 0.0 0.0 4.358815731537452 0.0 0.0 0.0 6.286270971576118" Properties=species:S:1:pos:R:3:forces:R:3 energy=-3789.8377226049383 free_energy=-3789.8377226049383 stress="-0.10304482915383445 -0.0 -0.0 -0.0 -0.10313664491535442 0.0 -0.0 0.0 -0.10806990578182106" pbc="T T T"
O        0.00000000       1.08970391       3.84202789       0.00000000       0.00000180      -0.05197511
O        0.00000000       3.26911182       2.44424327       0.00000000      -0.00000180       0.05197511
O        2.17940787       3.26911181       0.69889214       0.00000000      -0.00000077      -0.05197177
O        2.17940787       1.08970393       5.58737865       0.00000000       0.00000077       0.05197177
O        0.00000000       3.26911180       5.41365329       0.00000000      -0.00000026      -0.05151771
O        0.00000000       1.08970393       0.87261786       0.00000000       0.00000026       0.05151771
O        2.17940787       1.08970393       2.27051761       0.00000000       0.00000000      -0.05151745
O        2.17940787       3.26911180       4.01575318       0.00000000      -0.00000000       0.05151745
H        0.00000000       1.89336252       4.43166808       0.00000000      -0.10518614       0.07288923
H        0.00000000       2.46545308       1.85460289       0.00000000       0.10518614      -0.07288923
H        2.17940787       2.46545324       1.28853272       0.00000000       0.10518383       0.07288795
H        2.17940787       1.89336236       4.99773825       0.00000000      -0.10518383      -0.07288795
H        3.55516452       3.26911180       6.00330068       0.10498740       0.00000000       0.07287561
H        0.80365108       1.08970393       0.28297030      -0.10498740      -0.00000000      -0.07287561
H        2.98305910       1.08970393       2.86016515      -0.10498766      -0.00000000       0.07287612
H        1.37575677       3.26911180       3.42610582       0.10498766       0.00000000      -0.07287612
H        2.98305910       3.26911180       3.42610582      -0.10498766       0.00000000      -0.07287612
H        1.37575677       1.08970393       2.86016515       0.10498766      -0.00000000       0.07287612
H        3.55516452       1.08970393       0.28297030       0.10498740      -0.00000000      -0.07287561
H        0.80365108       3.26911180       6.00330068      -0.10498740       0.00000000       0.07287561
H        2.17940787       4.07277035       1.28853272       0.00000000      -0.10518332       0.07288846
H        2.17940787       0.28604551       4.99773825       0.00000000       0.10518332      -0.07288846
H        0.00000000       0.28604536       4.43166807       0.00000000       0.10518486       0.07289026
H        0.00000000       4.07277050       1.85460290       0.00000000      -0.10518486      -0.07289026
24
Lattice="4.358815731537452 0.0 0.0 0.0 4.358815731537452 0.0 0.0 0.0 6.286270971576118" Properties=species:S:1:pos:R:3:forces:R:3 energy=-3789.844531437409 free_energy=-3789.844531437409 stress="-0.1026481850640683 -0.0 -0.0 -0.0 -0.10272898293420585 -0.0 -0.0 -0.0 -0.1066761425219483" pbc="T T T"
O        0.00000000       1.08970395       3.85054561       0.00000000      -0.00000206      -0.06582975
O        0.00000000       3.26911178       2.43572554       0.00000000       0.00000206       0.06582975
O        2.17940787       3.26911179       0.70740976       0.00000000       0.00000077      -0.06582795
O        2.17940787       1.08970394       5.57886103       0.00000000      -0.00000077       0.06582795
O        0.00000000       3.26911180       5.42220174      -0.00000000       0.00000000      -0.06547314
O        0.00000000       1.08970393       0.86406941      -0.00000000      -0.00000000       0.06547314
O        2.17940787       1.08970393       2.27906607      -0.00000000      -0.00000000      -0.06547314
O        2.17940787       3.26911180       4.00720472      -0.00000000       0.00000000       0.06547314
H        0.00000000       1.89272705       4.44158564       0.00000000      -0.09556945       0.05072915
H        0.00000000       2.46608855       1.84468533       0.00000000       0.09556945      -0.05072915
H        2.17940787       2.46608872       1.29845014       0.00000000       0.09556739       0.05072812
H        2.17940787       1.89272688       4.98782083       0.00000000      -0.09556739      -0.05072812
H        3.55579138       3.26911180       6.01323178       0.09547920       0.00000000       0.05073352
H        0.80302422       1.08970393       0.27303919      -0.09547920      -0.00000000      -0.05073352