24
Lattice="4.997607765183763 0.0 0.0 0.0 4.997607765183763 0.0 0.0 0.0 7.207534926124727" Properties=species:S:1:pos:R:3:forces:R:3 energy=-3790.569486105745 free_energy=-3790.569486105745 stress="0.07658169036855586 -0.0 -0.0 -0.0 0.07659913536324466 -0.0 -0.0 -0.0 0.0798916485713499" pbc="T T T"
O        0.00000000       1.24940194       4.37963457       0.00000000      -0.00000617       2.26027993
O        0.00000000       3.74820582       2.82790135       0.00000000       0.00000617      -2.26027993
O        2.49880388       3.74820582       0.77586661       0.00000000      -0.00000540       2.26032441
O        2.49880388       1.24940194       6.43166881       0.00000000       0.00000540      -2.26032441
O        0.00000000       3.74820582       6.18150156       0.00000000      -0.00000206       2.27954752
O        0.00000000       1.24940194       1.02603436       0.00000000       0.00000206      -2.27954752
O        2.49880388       1.24940194       2.57773310       0.00000000      -0.00000283       2.27950535
O        2.49880388       3.74820582       4.62980232       0.00000000       0.00000283      -2.27950535
H        0.00000000       2.08697052       5.01729584       0.00000000      -1.69751224      -1.14510070
H        0.00000000       2.91063675       2.19024008       0.00000000       1.69751224       1.14510070
H        2.49880388       2.91063675       1.41352788       0.00000000       1.69750993      -1.14509427
H        2.49880388       2.08697052       5.79400755       0.00000000      -1.69750993       1.14509427
H        4.16003719       3.74820582       6.81918282       1.69790331      -0.00000051      -1.14468598
H        0.83757058       1.24940194       0.38835260      -1.69790331       0.00000051       1.14468598
H        3.33637446       1.24940194       3.21541486      -1.69792002      -0.00000000      -1.14469652
H        1.66123331       3.74820582       3.99212057       1.69792002       0.00000000       1.14469652
H        3.33637446       3.74820582       3.99212057      -1.69792002       0.00000000       1.14469652
H        1.66123331       1.24940194       3.21541486       1.69792002      -0.00000000      -1.14469652
H        4.16003719       1.24940194       0.38835260       1.69790331       0.00000051       1.14468598
H        0.83757058       3.74820582       6.81918282      -1.69790331      -0.00000051      -1.14468598
H        2.49880388       4.58577490       1.41352788       0.00000000      -1.69750941      -1.14509376
H        2.49880388       0.41183337       5.79400755       0.00000000       1.69750941       1.14509376
H        0.00000000       0.41183337       5.01729584       0.00000000       1.69751224      -1.14510147
H        0.00000000       4.58577490       2.19024008       0.00000000      -1.69751224       1.14510147
