24
Lattice="4.358815731537452 0.0 0.0 0.0 4.358815731537452 0.0 0.0 0.0 6.286270971576118" Properties=species:S:1:pos:R:3:forces:R:3 energy=-3787.689237723621 free_energy=-3787.689237723621 stress="-0.268222302285831 -0.0 -0.0 -0.0 -0.2683765527651845 -0.0 -0.0 -0.0 -0.27703386091890014" pbc="T T T"
O        0.00000000       1.08970393       3.81983160       0.00000000      -0.00000051      -4.11615387
O        0.00000000       3.26911180       2.46644024       0.00000000       0.00000051       4.11615387
O        2.17940787       3.26911180       0.67669568       0.00000000      -0.00000077      -4.11614513
O        2.17940787       1.08970393       5.60957573       0.00000000       0.00000077       4.11614513
O        0.00000000       3.26911180       5.39138474       0.00000000       0.00000026      -4.11569056
O        0.00000000       1.08970393       0.89488710       0.00000000      -0.00000026       4.11569056
O        2.17940787       1.08970393       2.24824839       0.00000000      -0.00000026      -4.11570753
O        2.17940787       3.26911180       4.03802302       0.00000000       0.00000026       4.11570753
H        0.00000000       1.82021486       4.37598729       0.00000000       3.21920319       2.14601342
H        0.00000000       2.53860043       1.91028456       0.00000000      -3.21920319      -2.14601342
H        2.17940787       2.53860043       1.23285136       0.00000000      -3.21920551       2.14601471
H        2.17940787       1.82021486       5.05342004       0.00000000       3.21920551      -2.14601471
H        3.62830306       3.26911180       5.94755786      -3.21810302       0.00000000       2.14560410
H        0.73051267       1.08970393       0.33871355       3.21810302      -0.00000000      -2.14560410
H        2.90992054       1.08970393       2.80442194       3.21810019      -0.00000000       2.14560024
H        1.44889519       3.26911180       3.48184947      -3.21810019       0.00000000      -2.14560024
H        2.90992054       3.26911180       3.48184947       3.21810019       0.00000000      -2.14560024
H        1.44889519       1.08970393       2.80442194      -3.21810019      -0.00000000       2.14560024
H        3.62830306       1.08970393       0.33871355      -3.21810302      -0.00000000      -2.14560410
H        0.73051267       3.26911180       5.94755786       3.21810302       0.00000000       2.14560410
H        2.17940787       3.99962316       1.23285136       0.00000000       3.21920576       2.14601522
H        2.17940787       0.35919301       5.05342004       0.00000000      -3.21920576      -2.14601522
H        0.00000000       0.35919301       4.37598729       0.00000000      -3.21920319       2.14601316
H        0.00000000       3.99962316       1.91028456       0.00000000       3.21920319      -2.14601316
