24
Lattice="4.696999655965992 0.0 0.0 0.0 4.696999655965992 0.0 0.0 0.0 6.773998812835185" Properties=species:S:1:pos:R:3:forces:R:3 energy=-3791.4236777042706 free_energy=-3791.4236777042706 stress="-0.052610431350928584 -0.0 -0.0 -0.0 -0.052723364737598116 0.0 -0.0 0.0 -0.05393074200158539" pbc="T T T"
O        0.00000000       1.17424991       4.12448519       0.00000000       0.00000000      -0.99976061
O        0.00000000       3.52274974       2.64951457       0.00000000      -0.00000000       0.99976061
O        2.34849983       3.52274974       0.73748531      -0.00000000       0.00000103      -0.99973001
O        2.34849983       1.17424991       6.03651397      -0.00000000      -0.00000103       0.99973001
O        0.00000000       3.52274974       5.81798512       0.00000000      -0.00000000      -1.00097674
O        0.00000000       1.17424991       0.95601463       0.00000000       0.00000000       1.00097674
O        2.34849983       1.17424991       2.43098525       0.00000000      -0.00000026      -1.00100194
O        2.34849983       3.52274974       4.34301403       0.00000000       0.00000026       1.00100194
H        0.00000000       1.94573211       4.71009724       0.00000000       0.78742451       0.50680146
H        0.00000000       2.75126755       2.06390204       0.00000000      -0.78742451      -0.50680146
H        2.34849983       2.75126755       1.32309783       0.00000000      -0.78742683       0.50679786
H        2.34849983       1.94573211       5.45090192       0.00000000       0.78742683      -0.50679786
H        3.92551746       3.52274974       6.40359718      -0.78739057       0.00000000       0.50709173
H        0.77148219       1.17424991       0.37040210       0.78739057      -0.00000000      -0.50709173
H        3.11998202       1.17424991       3.01659730       0.78738800       0.00000000       0.50708891
H        1.57701763       3.52274974       3.75740198      -0.78738800      -0.00000000      -0.50708891
H        3.11998202       3.52274974       3.75740198       0.78738800      -0.00000000      -0.50708891
H        1.57701763       1.17424991       3.01659730      -0.78738800       0.00000000       0.50708891
H        3.92551746       1.17424991       0.37040210      -0.78739057      -0.00000000      -0.50709173
H        0.77148219       3.52274974       6.40359718       0.78739057       0.00000000       0.50709173
H        2.34849983       4.29423194       1.32309783       0.00000000       0.78742708       0.50679811
H        2.34849983       0.40276772       5.45090192       0.00000000      -0.78742708      -0.50679811
H        0.00000000       0.40276772       4.71009724       0.00000000      -0.78742451       0.50680120
H        0.00000000       4.29423194       2.06390204       0.00000000       0.78742451      -0.50680120
24
Lattice="4.696999655965992 0.0 0.0 0.0 4.696999655965992 0.0 0.0 0.0 6.773998812835185" Properties=species:S:1:pos:R:3:forces:R:3 energy=-3791.532103504136 free_energy=-3791.532103504136 stress="-0.010740607782603185 -0.0 -0.0 -0.0 -0.010856295642118317 -0.0 -0.0 -0.0 -0.00045540617713892803" pbc="T T T"
O        0.00000000       1.17424991       4.10390806       0.00000000       0.00000000       0.68495911
O        0.00000000       3.52274974       2.67009095       0.00000000      -0.00000000      -0.68495911
O        2.34849983       3.52274976       0.71690909       0.00000000      -0.00000077       0.68492491
O        2.34849983       1.17424989       6.05708953       0.00000000       0.00000077      -0.68492491
O        0.00000000       3.52274974       5.79738274       0.00000000      -0.00000000       0.68640510
O        0.00000000       1.17424991       0.97661627       0.00000000       0.00000000      -0.68640510
O        2.34849983       1.17424991       2.41038262       0.00000000       0.00000000       0.68642335
O        2.34849983       3.52274975       4.36361600       0.00000000      -0.00000000      -0.68642335
H        0.00000000       1.96193859       4.72052777       0.00000000      -0.17472034      -0.30712059
H        0.00000000       2.73506092       2.05347105       0.00000000       0.17472034       0.30712059
H        2.34849983       2.73506088       1.33352829       0.00000000       0.17471417      -0.30711005
H        2.34849983       1.96193864       5.44047053       0.00000000      -0.17471417       0.30711005
H        3.90931153       3.52274974       6.41403344       0.17486253       0.00000000      -0.30755433
H        0.78768798       1.17424991       0.35996537      -0.17486253      -0.00000000       0.30755433
H        3.13618790       1.17424991       3.02703398      -0.17486587      -0.00000000      -0.30756076
H        1.56081190       3.52274974       3.74696484       0.17486587       0.00000000       0.30756076
H        3.13618790       3.52274974       3.74696484      -0.17486587       0.00000000       0.30756076
H        1.56081190       1.17424991       3.02703398       0.17486587      -0.00000000      -0.30756076
H        3.90931153       1.17424991       0.35996537       0.17486253      -0.00000000       0.30755433
H        0.78768798       3.52274974       6.41403344      -0.17486253       0.00000000      -0.30755433
H        2.34849983       4.31043861       1.33352829       0.00000000      -0.17471366      -0.30710953
H        2.34849983       0.38656118       5.44047052       0.00000000       0.17471366       0.30710953
H        0.00000000       0.38656124       4.72052776       0.00000000       0.17472034      -0.30712033
H        0.00000000       4.31043856       2.05347105       0.00000000      -0.17472034       0.30712033
24
Lattice="4.696999655965992 0.0 0.0 0.0 4.696999655965992 0.0 0.0 0.0 6.773998812835185" Properties=species:S:1:pos:R:3:forces:R:3 energy=-3791.576404045241 free_energy=-3791.576404045241 stress="-0.020955111251697085 -0.0 -0.0 -0.0 -0.021061617535060223 0.0 -0.0 0.0 -0.0172457544862913" pbc="T T T"
O        0.00000000       1.17424992       4.11308894      -0.00000000      -0.00000000       0.14178117
O        0.00000000       3.52274974       2.66091007      -0.00000000       0.00000000      -0.14178117
O        2.34849983       3.52274975       0.72608950       0.00000000       0.00000026       0.14178323
O        2.34849983       1.17424991       6.04790912       0.00000000      -0.00000026      -0.14178323
O        0.00000000       3.52274974       5.80658341      -0.00000000      -0.00000000       0.14135488
O        0.00000000       1.17424991       0.96741560      -0.00000000       0.00000000      -0.14135488
O        2.34849983       1.17424991       2.41958353       0.00000000       0.00000000       0.14135642
O        2.34849983       3.52274975       4.35441508       0.00000000      -0.00000000      -0.14135642
H        0.00000000       1.95984252       4.71643829       0.00000000       0.05453438      -0.04552601
H        0.00000000       2.73715699       2.05756053       0.00000000      -0.05453438       0.04552601
H        2.34849983       2.73715686       1.32943895       0.00000000      -0.05453156      -0.04552678
H        2.34849983       1.95984266       5.44455986       0.00000000       0.05453156       0.04552678
H        3.91140962       3.52274974       6.40993799      -0.05471770       0.00000000      -0.04540697
H        0.78558989       1.17424991       0.36406082       0.05471770      -0.00000000       0.04540697
H        3.13408976       1.17424991       3.02293843       0.05471925      -0.00000000      -0.04540774
H        1.56291003       3.52274974       3.75106038      -0.05471925       0.00000000       0.04540774
H        3.13408976       3.52274974       3.75106038       0.05471925       0.00000000       0.04540774
H        1.56291003       1.17424991       3.02293843      -0.05471925      -0.00000000      -0.04540774
H        3.91140962       1.17424991       0.36406082      -0.05471770      -0.00000000       0.04540697
H        0.78558989       3.52274974       6.40993799       0.05471770       0.00000000      -0.04540697
H        2.34849983       4.30834264       1.32943897       0.00000000       0.05453130      -0.04552704
H        2.34849983       0.38865716       5.44455985       0.00000000      -0.05453130       0.04552704
H        0.00000000       0.38865731       4.71643829       0.00000000      -0.05453413      -0.04552601
H        0.00000000       4.30834249       2.05756053       0.00000000       0.05453413       0.04552601
24
Lattice="4.696999655965992 0.0 0.0 0.0 4.696999655965992 0.0 0.0 0.0 6.773998812835185" Properties=species:S:1:pos:R:3:forces:R:3 energy=-3791.5802982663854 free_energy=-3791.5802982663854 stress="-0.021452752679135188 -0.0 -0.0 -0.0 -0.021576703957187113 -0.0 -0.0 -0.0 -0.020108569930483194" pbc="T T T"
O        0.00000000       1.17424991       4.11619732       0.00000000       0.00000000       0.03045986
O        0.00000000       3.52274974       2.65780169       0.00000000      -0.00000000      -0.03045986
O        2.34849983       3.52274975       0.72919794       0.00000000      -0.00000026       0.03045600
O        2.34849983       1.17424990       6.04480068       0.00000000       0.00000026      -0.03045600
O        0.00000000       3.52274974       5.80968107       0.00000000      -0.00000000       0.03058661
O        0.00000000       1.17424991       0.96431794       0.00000000       0.00000000      -0.03058661
O        2.34849983       1.17424991       2.42268122       0.00000000       0.00000000       0.03058764
O        2.34849983       3.52274975       4.35131739       0.00000000      -0.00000000      -0.03058764
H        0.00000000       1.96143855       4.71550298       0.00000000       0.06068729       0.00625986
H        0.00000000       2.73556097       2.05849584       0.00000000      -0.06068729      -0.00625986
H        2.34849983       2.73556090       1.32850362       0.00000000      -0.06068729       0.00626166
H        2.34849983       1.96143861       5.44549519       0.00000000       0.06068729      -0.00626166
H        3.90980917       3.52274974       6.40900566      -0.06052351       0.00000000       0.00609171
H        0.78719035       1.17424991       0.36499316       0.06052351      -0.00000000      -0.00609171
H        3.13569025       1.17424991       3.02200608       0.06052454      -0.00000000       0.00609120
H        1.56130955       3.52274974       3.75199274      -0.06052454       0.00000000      -0.00609120
H        3.13569025       3.52274974       3.75199274       0.06052454       0.00000000      -0.00609120
H        1.56130955       1.17424991       3.02200608      -0.06052454      -0.00000000       0.00609120
H        3.90980917       1.17424991       0.36499316      -0.06052351      -0.00000000      -0.00609171
H        0.78719035       3.52274974       6.40900566       0.06052351       0.00000000       0.00609171
H        2.34849983       4.30993859       1.32850363       0.00000000       0.06068755       0.00626166
H        2.34849983       0.38706120       5.44549518       0.00000000      -0.06068755      -0.00626166
H        0.00000000       0.38706128       4.71550297       0.00000000      -0.06068729       0.00625986
H        0.00000000       4.30993851       2.05849584       0.00000000       0.06068729      -0.00625986
24
Lattice="4.696999655965992 0.0 0.0 0.0 4.696999655965992 0.0 0.0 0.0 6.773998812835185" Properties=species:S:1:pos:R:3:forces:R:3 energy=-3791.582110952722 free_energy=-3791.582110952722 stress="-0.02002501758750004 -0.0 -0.0 -0.0 -0.020137950974169573 0.0 -0.0 0.0 -0.02060988398838209" pbc="T T T"
O        0.00000000       1.17424992       4.11868330       0.00000000      -0.00000000      -0.00771871
O        0.00000000       3.52274974       2.65531571       0.00000000       0.00000000       0.00771871
O        2.34849983       3.52274974       0.73168377      -0.00000000       0.00000051      -0.00771408
O        2.34849983       1.17424991       6.04231485      -0.00000000      -0.00000051       0.00771408
O        0.00000000       3.52274974       5.81216997      -0.00000000       0.00000000      -0.00809846
O        0.00000000       1.17424991       0.96182904      -0.00000000      -0.00000000       0.00809846
O        2.34849983       1.17424991       2.42517018       0.00000000       0.00000000      -0.00809923
O        2.34849983       3.52274974       4.34882843       0.00000000      -0.00000000       0.00809923
H        0.00000000       1.96394317       4.71520928       0.00000000       0.02210223       0.02284554
H        0.00000000       2.73305635       2.05878953       0.00000000      -0.02210223      -0.02284554
H        2.34849983       2.73305628       1.32821000       0.00000000      -0.02209940       0.02284322
H        2.34849983       1.96394323       5.44578882       0.00000000       0.02209940      -0.02284322
H        3.90730911       3.52274974       6.40870656      -0.02226627      -0.00000000       0.02291033
H        0.78969041       1.17424991       0.36529225       0.02226627       0.00000000      -0.02291033
H        3.13819035       1.17424991       3.02170696       0.02226730      -0.00000000       0.02291110
H        1.55880944       3.52274974       3.75229185      -0.02226730       0.00000000      -0.02291110
H        3.13819035       3.52274974       3.75229185       0.02226730       0.00000000      -0.02291110
H        1.55880944       1.17424991       3.02170696      -0.02226730      -0.00000000       0.02291110
H        3.90730911       1.17424991       0.36529225      -0.02226627       0.00000000      -0.02291033
H        0.78969041       3.52274974       6.40870656       0.02226627      -0.00000000       0.02291033
H        2.34849983       4.31244322       1.32821001       0.00000000       0.02209889       0.02284297
H        2.34849983       0.38455658       5.44578881       0.00000000      -0.02209889      -0.02284297
H        0.00000000       0.38455666       4.71520928       0.00000000      -0.02210223       0.02284554
H        0.00000000       4.31244314       2.05878953       0.00000000       0.02210223      -0.02284554
24
Lattice="4.696999655965992 0.0 0.0 0.0 4.696999655965992 0.0 0.0 0.0 6.773998812835185" Properties=species:S:1:pos:R:3:forces:R:3 energy=-3791.5823572157456 free_energy=-3791.5823572157456 stress="-0.0190894149776118 -0.0 -0.0 -0.0 -0.019215202570894124 -0.0 -0.0 -0.0 -0.02003144469080644" pbc="T T T"
O        0.00000000       1.17424991       4.11930994       0.00000000       0.00000000       0.00275314
O        0.00000000       3.52274974       2.65468907       0.00000000      -0.00000000      -0.00275314
O        2.34849983       3.52274976       0.73231050       0.00000000      -0.00000077       0.00274979
O        2.34849983       1.17424990       6.04168812       0.00000000       0.00000077      -0.00274979
O        0.00000000       3.52274974       5.81278683       0.00000000      -0.00000000       0.00293980
O        0.00000000       1.17424991       0.96121218       0.00000000       0.00000000      -0.00293980
O        2.34849983       1.17424991       2.42578705      -0.00000000       0.00000000       0.00294031
O        2.34849983       3.52274974       4.34821157      -0.00000000      -0.00000000      -0.00294031
H        0.00000000       1.96478621       4.71553930       0.00000000       0.00066437       0.01691940
H        0.00000000       2.73221330       2.05845952       0.00000000      -0.00066437      -0.01691940
H        2.34849983       2.73221331       1.32853996       0.00000000      -0.00066566       0.01692069
H        2.34849983       1.96478620       5.44545885       0.00000000       0.00066566      -0.01692069
H        3.90646186       3.52274974       6.40903785      -0.00054045       0.00000000       0.01671937
H        0.79053765       1.17424991       0.36496096       0.00054045      -0.00000000      -0.01671937
H        3.13903763       1.17424991       3.02203826       0.00054045       0.00000000       0.01671963
H        1.55796217       3.52274974       3.75196055      -0.00054045      -0.00000000      -0.01671963
H        3.13903763       3.52274974       3.75196055       0.00054045      -0.00000000      -0.01671963
H        1.55796217       1.17424991       3.02203826      -0.00054045       0.00000000       0.01671963
H        3.90646186       1.17424991       0.36496096      -0.00054045      -0.00000000      -0.01671937
H        0.79053765       3.52274974       6.40903785       0.00054045       0.00000000       0.01671937
H        2.34849983       4.31328617       1.32853996       0.00000000       0.00066617       0.01692120
H        2.34849983       0.38371362       5.44545885       0.00000000      -0.00066617      -0.01692120
H        0.00000000       0.38371362       4.71553929       0.00000000      -0.00066437       0.01691940
H        0.00000000       4.31328618       2.05845952       0.00000000       0.00066437      -0.01691940
